
     Program PWSCF v.7.2 starts on 12Jun2023 at  1:54:47 

     This program is part of the open-source Quantum ESPRESSO suite
     for quantum simulation of materials; please cite
         "P. Giannozzi et al., J. Phys.:Condens. Matter 21 395502 (2009);
         "P. Giannozzi et al., J. Phys.:Condens. Matter 29 465901 (2017);
         "P. Giannozzi et al., J. Chem. Phys. 152 154105 (2020);
          URL http://www.quantum-espresso.org", 
     in publications or presentations arising from this work. More details at
     http://www.quantum-espresso.org/quote

     Parallel version (MPI), running on    42 processors

     MPI processes distributed on     1 nodes
     185180 MiB available memory on the printing compute node when the environment starts

     Reading input from md_data/md_Hf5Nb2Ta10Zr5H_20steps_1000eV_incident45_polar30.in
Warning: card &CELL ignored
Warning: card / ignored

     Current dimensions of program PWSCF are:
     Max number of different atomic species (ntypx) = 10
     Max number of k-points (npk) =  40000
     Max angular momentum in pseudopotentials (lmaxx) =  4

     File outdir/pwscf.update deleted, as requested

     File outdir/pwscf.md deleted, as requested

     gamma-point specific algorithms are used

     R & G space division:  proc/nbgrp/npool/nimage =      42
     Subspace diagonalization in iterative solution of the eigenvalue problem:
     one sub-group per band group will be used
     custom distributed-memory algorithm (size of sub-group:  2*  2 procs)


     Parallelization info
     --------------------
     sticks:   dense  smooth     PW     G-vecs:    dense   smooth      PW
     Min         239     239     59                21459    21459    2676
     Max         242     242     62                21470    21470    2688
     Sum       10131   10131   2529               901547   901547  112647

     Using Slab Decomposition



     bravais-lattice index     =            0
     lattice parameter (alat)  =      16.1383  a.u.
     unit-cell volume          =    5077.2634 (a.u.)^3
     number of atoms/cell      =           23
     number of atomic types    =            5
     number of electrons       =       277.00
     number of Kohn-Sham states=          167
     kinetic-energy cutoff     =     120.0000  Ry
     charge density cutoff     =     480.0000  Ry
     scf convergence threshold =      1.0E-03
     mixing beta               =       0.7000
     number of iterations used =            8  TF        mixing
     energy convergence thresh.=      0.0E+00
     force convergence thresh. =      0.0E+00
     Exchange-correlation=  SLA  PW   PBX  PBC
                           (   1   4   3   4   0   0   0)
     nstep                     =           20


     celldm(1)=  16.138261  celldm(2)=   0.000000  celldm(3)=   0.000000
     celldm(4)=   0.000000  celldm(5)=   0.000000  celldm(6)=   0.000000

     crystal axes: (cart. coord. in units of alat)
               a(1) = (   1.000000   0.000000   0.000000 )  
               a(2) = (   0.000000   1.016393   0.000000 )  
               a(3) = (   0.000000   0.000000   1.188496 )  

     reciprocal axes: (cart. coord. in units 2 pi/alat)
               b(1) = (  1.000000  0.000000  0.000000 )  
               b(2) = (  0.000000  0.983871  0.000000 )  
               b(3) = (  0.000000  0.000000  0.841400 )  


     PseudoPot. # 1 for Hf read from file:
     q-e/pseudo/hf_pbe_v1.uspp.F.UPF
     MD5 check sum: 8ee9378dfe14276e333edf04c5e4aa26
     Pseudo is Ultrasoft + core correction, Zval = 12.0
     Generated by new atomic code, or converted to UPF format
     Using radial grid of  921 points,  8 beta functions with: 
                l(1) =   0
                l(2) =   0
                l(3) =   0
                l(4) =   1
                l(5) =   1
                l(6) =   2
                l(7) =   2
                l(8) =   3
     Q(r) pseudized with  6 coefficients,  rinner =    1.200   1.200   1.200
                                                       1.200   1.200   1.200
                                                       1.200

     PseudoPot. # 2 for Nb read from file:
     q-e/pseudo/nb_pbe_v1.uspp.F.UPF
     MD5 check sum: 573aab8a2fa660278ed4a62cd769473f
     Pseudo is Ultrasoft + core correction, Zval = 13.0
     Generated by new atomic code, or converted to UPF format
     Using radial grid of  887 points,  6 beta functions with: 
                l(1) =   0
                l(2) =   0
                l(3) =   1
                l(4) =   1
                l(5) =   2
                l(6) =   2
     Q(r) pseudized with  6 coefficients,  rinner =    1.000   1.000   1.000
                                                       1.000   1.000

     PseudoPot. # 3 for Ta read from file:
     q-e/pseudo/ta_pbe_v1.uspp.F.UPF
     MD5 check sum: f8bbe9446314a3b8ea5d9f3e3836c939
     Pseudo is Ultrasoft + core correction, Zval = 13.0
     Generated by new atomic code, or converted to UPF format
     Using radial grid of  921 points,  7 beta functions with: 
                l(1) =   0
                l(2) =   0
                l(3) =   1
                l(4) =   1
                l(5) =   2
                l(6) =   2
                l(7) =   3
     Q(r) pseudized with  6 coefficients,  rinner =    1.300   1.300   1.300
                                                       1.300   1.300   1.300
                                                       1.300

     PseudoPot. # 4 for Zr read from file:
     q-e/pseudo/zr_pbe_v1.uspp.F.UPF
     MD5 check sum: 5db81b1e868ab7776c4564c113de050b
     Pseudo is Ultrasoft + core correction, Zval = 12.0
     Generated by new atomic code, or converted to UPF format
     Using radial grid of  887 points,  6 beta functions with: 
                l(1) =   0
                l(2) =   0
                l(3) =   1
                l(4) =   1
                l(5) =   2
                l(6) =   2
     Q(r) pseudized with  6 coefficients,  rinner =    1.200   1.200   1.200
                                                       1.200   1.200

     PseudoPot. # 5 for H  read from file:
     q-e/pseudo/h_pbe_v1.4.uspp.F.UPF
     MD5 check sum: 761ae9a214b05c3daf00ab9f6b793d6f
     Pseudo is Ultrasoft, Zval =  1.0
     Generated by new atomic code, or converted to UPF format
     Using radial grid of  615 points,  2 beta functions with: 
                l(1) =   0
                l(2) =   0
     Q(r) pseudized with  8 coefficients,  rinner =    0.700

     atomic species   valence    mass     pseudopotential
        Hf            12.00   178.49000     Hf( 1.00)
        Nb            13.00    92.90637     Nb( 1.00)
        Ta            13.00   180.94788     Ta( 1.00)
        Zr            12.00    91.22400     Zr( 1.00)
        H              1.00     2.01400     H ( 1.00)

     Starting magnetic structure 
     atomic species   magnetization
        Hf           0.000
        Nb           0.000
        Ta           0.000
        Zr           0.000
        H            0.000

     No symmetry found



   Cartesian axes

     site n.     atom                  positions (alat units)
         1           Hf  tau(   1) = (   0.3126464   0.3310449   0.7732979  )
         2           Hf  tau(   2) = (   0.1467202   0.1506188   0.5923263  )
         3           Hf  tau(   3) = (   0.1470125   0.8653167   0.5957925  )
         4           Hf  tau(   4) = (   0.4785725   0.1506188   0.5923263  )
         5           Hf  tau(   5) = (   0.4782802   0.8653167   0.5957925  )
         6           Nb  tau(   6) = (   0.3126464   0.3275094   0.4116608  )
         7           Nb  tau(   7) = (   0.3126464   0.6881006   0.7769319  )
         8           Ta  tau(   8) = (   0.1416128   0.5083054   0.5938087  )
         9           Ta  tau(   9) = (   0.4836800   0.5083054   0.5938087  )
        10           Ta  tau(  10) = (   0.1530741   0.1538785   0.2410748  )
        11           Ta  tau(  11) = (   0.1525513   0.1532074   0.9478430  )
        12           Ta  tau(  12) = (   0.1526943   0.8636799   0.2396062  )
        13           Ta  tau(  13) = (   0.1531277   0.8624219   0.9468387  )
        14           Ta  tau(  14) = (   0.4722187   0.1538785   0.2410748  )
        15           Ta  tau(  15) = (   0.4727414   0.1532074   0.9478430  )
        16           Ta  tau(  16) = (   0.4725984   0.8636799   0.2396062  )
        17           Ta  tau(  17) = (   0.4721650   0.8624219   0.9468387  )
        18           Zr  tau(  18) = (   0.3126464   0.6869187   0.4130426  )
        19           Zr  tau(  19) = (   0.1456481   0.5060981   0.2341920  )
        20           Zr  tau(  20) = (   0.1452442   0.5098505   0.9543040  )
        21           Zr  tau(  21) = (   0.4796447   0.5060981   0.2341920  )
        22           Zr  tau(  22) = (   0.4800486   0.5098505   0.9543040  )
        23           H   tau(  23) = (   0.6161590   0.6229269   0.6601716  )

     number of k points=     1  Gaussian smearing, width (Ry)=  0.0220
                       cart. coord. in units 2pi/alat
        k(    1) = (   0.0000000   0.0000000   0.0000000), wk =   1.0000000

     Dense  grid:   450774 G-vectors     FFT dimensions: ( 120, 120, 135)

     Estimated max dynamical RAM per process >     123.77 MB

     Estimated total dynamical RAM >       5.08 GB

     Check: negative core charge=   -0.000002
     Generating pointlists ...
     new r_m :   0.1181 (alat units)  1.9052 (a.u.) for type    1
     new r_m :   0.1201 (alat units)  1.9374 (a.u.) for type    2
     new r_m :   0.0773 (alat units)  1.2471 (a.u.) for type    3
     new r_m :   0.1216 (alat units)  1.9625 (a.u.) for type    4
     new r_m :   0.0773 (alat units)  1.2471 (a.u.) for type    5

     Initial potential from superposition of free atoms

     starting charge     266.9726, renormalised to     277.0000

     negative rho (up, down):  9.226E-01 9.226E-01
     Starting wfcs are  287 randomized atomic wfcs

     total cpu time spent up to now is       11.2 secs

     Self-consistent Calculation

     iteration #  1     ecut=   120.00 Ry     beta= 0.70
     Davidson diagonalization with overlap
     ethr =  1.00E-02,  avg # of iterations =  2.0

     negative rho (up, down):  9.852E-01 9.851E-01

     total cpu time spent up to now is       27.0 secs

     total energy              =   -2931.88113744 Ry
     estimated scf accuracy    <     287.24461499 Ry

     total magnetization       =    -0.00 Bohr mag/cell
     absolute magnetization    =     0.11 Bohr mag/cell

     iteration #  2     ecut=   120.00 Ry     beta= 0.70
     Davidson diagonalization with overlap
     ethr =  1.00E-02,  avg # of iterations =  5.0

     negative rho (up, down):  9.444E-01 9.451E-01

     total cpu time spent up to now is       44.4 secs

     total energy              =   -2942.19949088 Ry
     estimated scf accuracy    <      34.81744859 Ry

     total magnetization       =    -0.06 Bohr mag/cell
     absolute magnetization    =     0.39 Bohr mag/cell

     iteration #  3     ecut=   120.00 Ry     beta= 0.70
     Davidson diagonalization with overlap
     ethr =  1.00E-02,  avg # of iterations =  2.0

     negative rho (up, down):  9.721E-01 9.744E-01

     total cpu time spent up to now is       59.7 secs

     total energy              =   -2942.66134207 Ry
     estimated scf accuracy    <      14.80646083 Ry

     total magnetization       =    -0.01 Bohr mag/cell
     absolute magnetization    =     0.46 Bohr mag/cell

     iteration #  4     ecut=   120.00 Ry     beta= 0.70
     Davidson diagonalization with overlap
     ethr =  5.35E-03,  avg # of iterations =  4.0

     negative rho (up, down):  9.664E-01 9.698E-01

     total cpu time spent up to now is       74.2 secs

     total energy              =   -2942.93067980 Ry
     estimated scf accuracy    <       3.17459475 Ry

     total magnetization       =    -0.22 Bohr mag/cell
     absolute magnetization    =     0.57 Bohr mag/cell

     iteration #  5     ecut=   120.00 Ry     beta= 0.70
     Davidson diagonalization with overlap
     ethr =  1.15E-03,  avg # of iterations =  7.0

     negative rho (up, down):  9.431E-01 9.448E-01

     total cpu time spent up to now is       93.1 secs

     total energy              =   -2943.07160122 Ry
     estimated scf accuracy    <       1.62800254 Ry

     total magnetization       =    -0.12 Bohr mag/cell
     absolute magnetization    =     0.28 Bohr mag/cell

     iteration #  6     ecut=   120.00 Ry     beta= 0.70
     Davidson diagonalization with overlap
     ethr =  5.88E-04,  avg # of iterations =  2.0

     negative rho (up, down):  9.307E-01 9.316E-01

     total cpu time spent up to now is      107.0 secs

     total energy              =   -2943.07350701 Ry
     estimated scf accuracy    <       1.11890042 Ry

     total magnetization       =    -0.09 Bohr mag/cell
     absolute magnetization    =     0.21 Bohr mag/cell

     iteration #  7     ecut=   120.00 Ry     beta= 0.70
     Davidson diagonalization with overlap
     ethr =  4.04E-04,  avg # of iterations =  2.0

     negative rho (up, down):  9.129E-01 9.130E-01

     total cpu time spent up to now is      123.3 secs

     total energy              =   -2943.04694683 Ry
     estimated scf accuracy    <       0.30647776 Ry

     total magnetization       =    -0.09 Bohr mag/cell
     absolute magnetization    =     0.18 Bohr mag/cell

     iteration #  8     ecut=   120.00 Ry     beta= 0.70
     Davidson diagonalization with overlap
     ethr =  1.11E-04,  avg # of iterations = 12.0

     negative rho (up, down):  9.070E-01 9.070E-01

     total cpu time spent up to now is      159.9 secs

     total energy              =   -2943.05098466 Ry
     estimated scf accuracy    <       0.24076859 Ry

     total magnetization       =    -0.08 Bohr mag/cell
     absolute magnetization    =     0.14 Bohr mag/cell

     iteration #  9     ecut=   120.00 Ry     beta= 0.70
     Davidson diagonalization with overlap
     ethr =  8.69E-05,  avg # of iterations =  2.0

     negative rho (up, down):  9.080E-01 9.080E-01

     total cpu time spent up to now is      191.3 secs

     total energy              =   -2943.05629391 Ry
     estimated scf accuracy    <       0.05208172 Ry

     total magnetization       =    -0.06 Bohr mag/cell
     absolute magnetization    =     0.10 Bohr mag/cell

     iteration # 10     ecut=   120.00 Ry     beta= 0.70
     Davidson diagonalization with overlap
     ethr =  1.88E-05,  avg # of iterations = 10.0

     negative rho (up, down):  9.090E-01 9.090E-01

     total cpu time spent up to now is      214.2 secs

     total energy              =   -2943.06014148 Ry
     estimated scf accuracy    <       0.04983533 Ry

     total magnetization       =    -0.05 Bohr mag/cell
     absolute magnetization    =     0.08 Bohr mag/cell

     iteration # 11     ecut=   120.00 Ry     beta= 0.70
     Davidson diagonalization with overlap
     ethr =  1.80E-05,  avg # of iterations =  1.0

     negative rho (up, down):  9.098E-01 9.098E-01

     total cpu time spent up to now is      227.0 secs

     total energy              =   -2943.06355017 Ry
     estimated scf accuracy    <       0.00642951 Ry

     total magnetization       =    -0.05 Bohr mag/cell
     absolute magnetization    =     0.08 Bohr mag/cell

     iteration # 12     ecut=   120.00 Ry     beta= 0.70
     Davidson diagonalization with overlap
     ethr =  2.32E-06,  avg # of iterations = 15.0

     negative rho (up, down):  9.100E-01 9.100E-01

     total cpu time spent up to now is      247.2 secs

     total energy              =   -2943.06517649 Ry
     estimated scf accuracy    <       0.00121222 Ry

     total magnetization       =    -0.05 Bohr mag/cell
     absolute magnetization    =     0.06 Bohr mag/cell

     iteration # 13     ecut=   120.00 Ry     beta= 0.70
     Davidson diagonalization with overlap
     ethr =  4.38E-07,  avg # of iterations =  3.5

     negative rho (up, down):  9.098E-01 9.098E-01

     Magnetic moment per site  (integrated on atomic sphere of radius R)
     atom   1 (R=0.118)  charge=  9.1887    0.0000
     atom   2 (R=0.118)  charge=  8.8379   -0.0001
     atom   3 (R=0.118)  charge=  8.8376   -0.0003
     atom   4 (R=0.118)  charge=  8.8398   -0.0001
     atom   5 (R=0.118)  charge=  8.8328   -0.0003
     atom   6 (R=0.120)  charge= 10.3504   -0.0002
     atom   7 (R=0.120)  charge= 10.3516   -0.0001
     atom   8 (R=0.077)  charge=  5.9459   -0.0001
     atom   9 (R=0.077)  charge=  5.9637   -0.0000
     atom  10 (R=0.077)  charge=  5.9287   -0.0004
     atom  11 (R=0.077)  charge=  5.9284   -0.0003
     atom  12 (R=0.077)  charge=  5.9279   -0.0009
     atom  13 (R=0.077)  charge=  5.9289   -0.0003
     atom  14 (R=0.077)  charge=  5.9289   -0.0007
     atom  15 (R=0.077)  charge=  5.9288   -0.0004
     atom  16 (R=0.077)  charge=  5.9284   -0.0005
     atom  17 (R=0.077)  charge=  5.9305   -0.0004
     atom  18 (R=0.122)  charge=  9.4536    0.0002
     atom  19 (R=0.122)  charge=  8.9958   -0.0023
     atom  20 (R=0.122)  charge=  8.9941    0.0009
     atom  21 (R=0.122)  charge=  8.9948   -0.0016
     atom  22 (R=0.122)  charge=  8.9974   -0.0000
     atom  23 (R=0.077)  charge=  0.9042   -0.0000

     total cpu time spent up to now is      262.5 secs

     End of self-consistent calculation

 ------ SPIN UP ------------


          k = 0.0000 0.0000 0.0000 ( 56324 PWs)   bands (ev):

   -59.7646 -59.7612 -59.7188 -59.7186 -59.6821 -59.6741 -59.6366 -59.6362
   -59.5076 -59.1609 -53.3504 -53.3009 -53.2213 -53.1661 -51.6700 -45.2545
   -45.2370 -40.6207 -40.6043 -40.5308 -40.5036 -38.7808 -26.7653 -26.7581
   -26.6760 -26.6754 -26.5796 -26.5742 -26.4550 -26.4432 -26.3413 -26.3092
   -26.2777 -26.2472 -26.2415 -26.2094 -26.1959 -26.1522 -26.1394 -26.1257
   -26.0638 -25.9431 -25.9424 -25.9406 -25.9249 -25.8821 -25.8682 -25.8593
   -25.8409 -25.8394 -25.8274 -25.8190 -23.1362 -22.9195 -22.6292 -22.5318
   -22.2772 -22.1495 -22.1315 -22.0228 -21.8971 -21.8272 -21.7994 -21.5772
   -21.4904 -21.4369 -21.3736 -21.3349 -21.2491 -21.2049 -20.7317 -20.6609
   -20.6007 -19.1707 -18.9182 -18.8061 -18.8031 -18.6099 -18.5790 -18.5759
   -18.5662 -18.5505 -18.5165 -18.3446 -18.3350 -17.1268 -16.9207 -16.7984
     2.2564   3.3360   3.9475   4.1661   4.3429   4.4803   4.5468   4.7030
     4.7343   4.8344   4.9497   5.0773   5.2255   5.5155   5.6892   5.7050
     5.7932   5.8308   6.0598   6.1197   6.2007   6.2946   6.3093   6.3615
     6.4018   6.5721   6.6517   6.7329   6.7562   6.7699   6.7907   6.8512
     6.9845   7.0866   7.1894   7.2687   7.2850   7.3268   7.3875   7.3923
     7.4117   7.6289   7.6926   7.7608   7.9398   7.9971   8.0070   8.1212
     8.1634   8.2173   8.3084   8.3207   8.3346   8.4670   8.5459   8.5751
     8.6337   8.8025   8.8966   8.9730   9.0983   9.1032   9.2589   9.3215
     9.3364   9.3628   9.3822   9.4238   9.4700   9.6342   9.6882   9.7319
     9.9125   9.9799  10.0914  10.1274  10.1681  10.2774  10.2944

 ------ SPIN DOWN ----------


          k = 0.0000 0.0000 0.0000 ( 56324 PWs)   bands (ev):

   -59.7651 -59.7623 -59.7195 -59.7193 -59.6834 -59.6746 -59.6379 -59.6367
   -59.5079 -59.1610 -53.3506 -53.3011 -53.2214 -53.1662 -51.6700 -45.2546
   -45.2373 -40.6204 -40.6060 -40.5302 -40.5053 -38.7807 -26.7662 -26.7597
   -26.6774 -26.6767 -26.5807 -26.5755 -26.4557 -26.4448 -26.3417 -26.3100
   -26.2783 -26.2481 -26.2422 -26.2103 -26.1968 -26.1528 -26.1407 -26.1262
   -26.0644 -25.9441 -25.9436 -25.9414 -25.9265 -25.8829 -25.8694 -25.8603
   -25.8422 -25.8399 -25.8278 -25.8192 -23.1364 -22.9196 -22.6295 -22.5319
   -22.2774 -22.1498 -22.1318 -22.0230 -21.8973 -21.8274 -21.7994 -21.5772
   -21.4907 -21.4371 -21.3738 -21.3351 -21.2494 -21.2051 -20.7318 -20.6608
   -20.6006 -19.1725 -18.9167 -18.8073 -18.8052 -18.6102 -18.5784 -18.5770
   -18.5666 -18.5517 -18.5161 -18.3437 -18.3374 -17.1265 -16.9207 -16.7986
     2.2557   3.3353   3.9457   4.1655   4.3421   4.4790   4.5455   4.7026
     4.7337   4.8335   4.9477   5.0765   5.2244   5.5149   5.6885   5.7038
     5.7924   5.8298   6.0583   6.1189   6.1994   6.2936   6.3083   6.3602
     6.4002   6.5714   6.6514   6.7322   6.7550   6.7692   6.7901   6.8505
     6.9838   7.0850   7.1883   7.2675   7.2843   7.3254   7.3858   7.3914
     7.4104   7.6281   7.6918   7.7598   7.9385   7.9943   8.0050   8.1189
     8.1607   8.2119   8.3048   8.3181   8.3324   8.4622   8.5448   8.5718
     8.6316   8.8006   8.8951   8.9711   9.0967   9.1006   9.2569   9.3181
     9.3352   9.3604   9.3806   9.4219   9.4687   9.6323   9.6868   9.7308
     9.9113   9.9780  10.0885  10.1266  10.1671  10.2765  10.2934

     the Fermi energy is     8.2757 ev

!    total energy              =   -2943.06566346 Ry
     estimated scf accuracy    <       0.00024436 Ry
     smearing contrib. (-TS)   =      -0.10600411 Ry
     internal energy E=F+TS    =   -2942.95965935 Ry

     total magnetization       =    -0.05 Bohr mag/cell
     absolute magnetization    =     0.06 Bohr mag/cell

     convergence has been achieved in  13 iterations

     negative rho (up, down):  9.098E-01 9.098E-01

     Forces acting on atoms (cartesian axes, Ry/au):

     atom    1 type  1   force =     0.00027138   -0.02307948    0.01013522
     atom    2 type  1   force =    -0.12031630   -0.01791820   -0.00093694
     atom    3 type  1   force =    -0.11996460    0.01447184    0.00589085
     atom    4 type  1   force =     0.12539401   -0.01138459   -0.00338721
     atom    5 type  1   force =     0.13075262   -0.01139694    0.00881750
     atom    6 type  2   force =    -0.01060964   -0.02218512    0.00191678
     atom    7 type  2   force =    -0.02399494    0.01096203   -0.00963625
     atom    8 type  3   force =    -0.11818110    0.00669421    0.00182506
     atom    9 type  3   force =     0.03473815   -0.08502233   -0.06694032
     atom   10 type  3   force =    -0.02238781   -0.02675673   -0.05832154
     atom   11 type  3   force =    -0.02491606   -0.03330647    0.05570748
     atom   12 type  3   force =    -0.02076550    0.03260572   -0.05549480
     atom   13 type  3   force =    -0.01237314    0.02968837    0.06141004
     atom   14 type  3   force =     0.02250855   -0.02838590   -0.05905048
     atom   15 type  3   force =     0.02006200   -0.03765624    0.05862184
     atom   16 type  3   force =     0.02175955    0.03705363   -0.05289903
     atom   17 type  3   force =     0.01169281    0.04015671    0.06150712
     atom   18 type  4   force =    -0.00012667    0.02458031   -0.00877123
     atom   19 type  4   force =    -0.13657251   -0.00588614   -0.11626829
     atom   20 type  4   force =    -0.13597442    0.00465053    0.11459373
     atom   21 type  4   force =     0.13197034   -0.00846084   -0.11567642
     atom   22 type  4   force =     0.13687622    0.00270329    0.11474688
     atom   23 type  5   force =     0.11015707    0.10787235    0.05221001
     The non-local contrib.  to forces
     atom    1 type  1   force =     0.00474057   -0.00705361    0.03121841
     atom    2 type  1   force =    -0.24842098   -0.16332278    0.01541512
     atom    3 type  1   force =    -0.24105620    0.15465979   -0.02014460
     atom    4 type  1   force =     0.24710842   -0.16929803    0.02017887
     atom    5 type  1   force =     0.24570030    0.14131176   -0.01095546
     atom    6 type  2   force =     0.00974911   -0.06391193   -0.06987777
     atom    7 type  2   force =    -0.01660447    0.07353462    0.06525484
     atom    8 type  3   force =    -0.25413179    0.00275101    0.00053122
     atom    9 type  3   force =     0.09332181   -0.10243018   -0.05269755
     atom   10 type  3   force =    -0.22339737    0.00198913   -0.21626953
     atom   11 type  3   force =    -0.22554051    0.00982355    0.20109091
     atom   12 type  3   force =    -0.21323429   -0.02502530   -0.18008479
     atom   13 type  3   force =    -0.21470082   -0.00810356    0.20600765
     atom   14 type  3   force =     0.21677067    0.00489127   -0.21929972
     atom   15 type  3   force =     0.22033132    0.00486817    0.20223149
     atom   16 type  3   force =     0.21138657   -0.02213117   -0.18235854
     atom   17 type  3   force =     0.23832451   -0.01843889    0.19206387
     atom   18 type  4   force =    -0.01077552    0.06789993   -0.05658140
     atom   19 type  4   force =     0.06646278    0.00800711    0.07320923
     atom   20 type  4   force =     0.06201329   -0.01616948   -0.06393054
     atom   21 type  4   force =    -0.06347972    0.01177066    0.06789897
     atom   22 type  4   force =    -0.05800350   -0.00909529   -0.05436142
     atom   23 type  5   force =    -0.05808069   -0.04012882   -0.02993047
     The ionic contribution  to forces
     atom    1 type  1   force =    -0.23510887   -4.81049640   14.29096586
     atom    2 type  1   force =   -35.67712726   -6.15349815    0.74348569
     atom    3 type  1   force =   -35.68711713    6.25399606   -0.76748211
     atom    4 type  1   force =    35.54768964   -6.21098584    0.71287282
     atom    5 type  1   force =    35.13761014    6.96771213   -0.96199999
     atom    6 type  2   force =    -0.16104634   -3.69321465  -14.27267522
     atom    7 type  2   force =    -0.67427098    3.72704034   14.42189695
     atom    8 type  3   force =   -47.63700849   -0.03666213   -0.14193147
     atom    9 type  3   force =    45.61086415   -1.62348681   -1.06376682
     atom   10 type  3   force =   -32.19773227   -2.09736529  -23.47894396
     atom   11 type  3   force =   -31.27301652   -0.85306825   22.50679000
     atom   12 type  3   force =   -31.38879337    0.84288512  -22.56036452
     atom   13 type  3   force =   -32.19710959    2.26501361   23.53391519
     atom   14 type  3   force =    32.13921473   -2.10984467  -23.52266297
     atom   15 type  3   force =    31.18291246   -0.88074550   22.57480069
     atom   16 type  3   force =    31.28596148    0.91081949  -22.67483787
     atom   17 type  3   force =    31.97753412    2.46220855   23.78040217
     atom   18 type  4   force =    -0.32644958    4.42202953  -14.36542747
     atom   19 type  4   force =   -32.18376600    0.92274868  -25.96068389
     atom   20 type  4   force =   -32.17471779   -1.01469542   25.99239216
     atom   21 type  4   force =    32.06596401    0.87335671  -26.12588625
     atom   22 type  4   force =    31.87110698   -1.18295271   26.43265233
     atom   23 type  5   force =     4.99440647    1.01920559    0.90648868
     The local contribution  to forces
     atom    1 type  1   force =     0.23345957    4.79009054  -14.31381109
     atom    2 type  1   force =    35.81770656    6.29696943   -0.75650552
     atom    3 type  1   force =    35.82221763   -6.39218074    0.80187041
     atom    4 type  1   force =   -35.68084364    6.37010124   -0.73436228
     atom    5 type  1   force =   -35.26027042   -7.12282157    0.98945342
     atom    6 type  2   force =     0.14406554    3.72994337   14.35183046
     atom    7 type  2   force =     0.66850282   -3.78313877  -14.49645633
     atom    8 type  3   force =    47.79919235    0.03785116    0.14745314
     atom    9 type  3   force =   -45.67254214    1.65180576    1.06050080
     atom   10 type  3   force =    32.41885649    2.06502446   23.66179424
     atom   11 type  3   force =    31.50051248    0.79800731  -22.67978933
     atom   12 type  3   force =    31.59995466   -0.77415247   22.70472666
     atom   13 type  3   force =    32.42379450   -2.21685610  -23.70203810
     atom   14 type  3   force =   -32.35118001    2.07117270   23.70751859
     atom   15 type  3   force =   -31.40514893    0.82609009  -22.74318836
     atom   16 type  3   force =   -31.49232225   -0.84064488   22.82435206
     atom   17 type  3   force =   -32.22747865   -2.39223739  -23.93301775
     atom   18 type  4   force =     0.34064632   -4.46406933   14.42297830
     atom   19 type  4   force =    31.98434461   -0.94063336   25.78492556
     atom   20 type  4   force =    31.98311228    1.03594253  -25.82829450
     atom   21 type  4   force =   -31.87177787   -0.89631798   25.95783518
     atom   22 type  4   force =   -31.68029654    1.19382995  -26.27871302
     atom   23 type  5   force =    -4.82541868   -0.87168769   -0.82412885
     The core correction contribution to forces
     atom    1 type  1   force =     0.00047485    0.00231610   -0.00153865
     atom    2 type  1   force =    -0.01086970   -0.00124611    0.00046910
     atom    3 type  1   force =    -0.01191481    0.00266190   -0.00156197
     atom    4 type  1   force =     0.01134628   -0.00233336    0.00222775
     atom    5 type  1   force =     0.00718545    0.00547273   -0.00180541
     atom    6 type  2   force =    -0.00027513    0.00330663    0.00325624
     atom    7 type  2   force =     0.00088280   -0.00367426   -0.00255819
     atom    8 type  3   force =    -0.02965689    0.00113267    0.00030768
     atom    9 type  3   force =     0.00998670   -0.01298438   -0.00715419
     atom   10 type  3   force =    -0.02280371    0.00824976   -0.01680011
     atom   11 type  3   force =    -0.02556168    0.00888120    0.01855384
     atom   12 type  3   force =    -0.02233857   -0.00993208   -0.01499998
     atom   13 type  3   force =    -0.02293924   -0.00920419    0.01594918
     atom   14 type  3   force =     0.02239007    0.00871721   -0.01687136
     atom   15 type  3   force =     0.02385516    0.00947597    0.01643543
     atom   16 type  3   force =     0.02319071   -0.01053996   -0.01481164
     atom   17 type  3   force =     0.02400028   -0.00864643    0.01440910
     atom   18 type  4   force =     0.00062607   -0.00355644    0.00276189
     atom   19 type  4   force =    -0.01006533    0.00009829   -0.00960787
     atom   20 type  4   force =    -0.00993064    0.00050130    0.00911523
     atom   21 type  4   force =     0.00988060   -0.00007469   -0.00927247
     atom   22 type  4   force =     0.01004562    0.00040307    0.00810789
     atom   23 type  5   force =     0.00000000    0.00000000    0.00000000
     The Hubbard contrib.    to forces
     atom    1 type  1   force =     0.00000000    0.00000000    0.00000000
     atom    2 type  1   force =     0.00000000    0.00000000    0.00000000
     atom    3 type  1   force =     0.00000000    0.00000000    0.00000000
     atom    4 type  1   force =     0.00000000    0.00000000    0.00000000
     atom    5 type  1   force =     0.00000000    0.00000000    0.00000000
     atom    6 type  2   force =     0.00000000    0.00000000    0.00000000
     atom    7 type  2   force =     0.00000000    0.00000000    0.00000000
     atom    8 type  3   force =     0.00000000    0.00000000    0.00000000
     atom    9 type  3   force =     0.00000000    0.00000000    0.00000000
     atom   10 type  3   force =     0.00000000    0.00000000    0.00000000
     atom   11 type  3   force =     0.00000000    0.00000000    0.00000000
     atom   12 type  3   force =     0.00000000    0.00000000    0.00000000
     atom   13 type  3   force =     0.00000000    0.00000000    0.00000000
     atom   14 type  3   force =     0.00000000    0.00000000    0.00000000
     atom   15 type  3   force =     0.00000000    0.00000000    0.00000000
     atom   16 type  3   force =     0.00000000    0.00000000    0.00000000
     atom   17 type  3   force =     0.00000000    0.00000000    0.00000000
     atom   18 type  4   force =     0.00000000    0.00000000    0.00000000
     atom   19 type  4   force =     0.00000000    0.00000000    0.00000000
     atom   20 type  4   force =     0.00000000    0.00000000    0.00000000
     atom   21 type  4   force =     0.00000000    0.00000000    0.00000000
     atom   22 type  4   force =     0.00000000    0.00000000    0.00000000
     atom   23 type  5   force =     0.00000000    0.00000000    0.00000000
     The SCF correction term to forces
     atom    1 type  1   force =    -0.00000000    0.00000000    0.00000000
     atom    2 type  1   force =    -0.00000000    0.00000000   -0.00000000
     atom    3 type  1   force =    -0.00000000   -0.00000000   -0.00000000
     atom    4 type  1   force =     0.00000000    0.00000000   -0.00000000
     atom    5 type  1   force =     0.00000000   -0.00000000   -0.00000000
     atom    6 type  2   force =    -0.00000000    0.00000000   -0.00000000
     atom    7 type  2   force =    -0.00000000   -0.00000000    0.00000000
     atom    8 type  3   force =     0.00000000    0.00000000   -0.00000000
     atom    9 type  3   force =    -0.00000000    0.00000000   -0.00000000
     atom   10 type  3   force =     0.00291734   -0.00466868   -0.00780072
     atom   11 type  3   force =    -0.00108154    0.00303584    0.00936353
     atom   12 type  3   force =     0.00387436   -0.00118345   -0.00447070
     atom   13 type  3   force =    -0.00118970   -0.00117528    0.00787759
     atom   14 type  3   force =    -0.00445863   -0.00333630   -0.00743355
     atom   15 type  3   force =    -0.00165973    0.00264113    0.00864406
     atom   16 type  3   force =    -0.00622867   -0.00046373   -0.00494157
     atom   17 type  3   force =    -0.00045916   -0.00274303    0.00795120
     atom   18 type  4   force =    -0.00394566    0.00226274   -0.01220108
     atom   19 type  4   force =     0.00667972    0.00387926   -0.00380987
     atom   20 type  4   force =     0.00377674   -0.00094229    0.00561284
     atom   21 type  4   force =    -0.00838839    0.00279057   -0.00595036
     atom   22 type  4   force =    -0.00574805    0.00050438    0.00736257
     atom   23 type  5   force =    -0.00052174    0.00046938    0.00008213

     Total force =     0.439168     Total SCF correction =     0.032978


     Computing stress (Cartesian axis) and pressure


     negative rho (up, down):  9.098E-01 9.098E-01
          total   stress  (Ry/bohr**3)                   (kbar)     P=       93.77
   0.00070793   0.00004502   0.00001666          104.14        6.62        2.45
   0.00004502   0.00076155   0.00001598            6.62      112.03        2.35
   0.00001666   0.00001598   0.00044292            2.45        2.35       65.16


     Molecular Dynamics Calculation

     Starting temperature  =   300.00 K

     temperature is set once at start

     mass Hf               =   178.49
     mass Nb               =    92.91
     mass Ta               =   180.95
     mass Zr               =    91.22
     mass H                =     2.01
     Time step             =     4.20 a.u.,  0.2032 femto-seconds

     Entering Dynamics:    iteration =     1
                           time      =   0.0002 pico-seconds


ATOMIC_POSITIONS (angstrom)
Hf            2.6699999570        2.8271230292        6.6039642186    0   0   0
Hf            1.2529906802        1.2862841814        5.0584662261    0   0   0
Hf            1.2554868986        7.3898042948        5.0880677674    0   0   0
Hf            4.0870092338        1.2862841814        5.0584662261    0   0   0
Hf            4.0845130154        7.3898042948        5.0880677674    0   0   0
Nb            2.6699999570        2.7969306055        3.5155832167    0   0   0
Nb            2.6699999570        5.8763786763        6.6349979432    0   0   0
Ta            1.2093730560        4.3409278516        5.0711258323    0   0   0
Ta            4.1306268580        4.3409278516        5.0711258323    0   0   0
Ta            1.3072520505        1.3141218322        2.0587774596
Ta            1.3027876091        1.3083901934        8.0945807789
Ta            1.3040090344        7.3758270468        2.0462356093
Ta            1.3077104482        7.3650837886        8.0860039587
Ta            4.0327478669        1.3141217861        2.0587774390
Ta            4.0372121676        1.3083900703        8.0945808614
Ta            4.0359909077        7.3758271727        2.0462356828
Ta            4.0322894465        7.3650840848        8.0860039615
Zr            2.6699999499        5.8662872232        3.5273834380
Zr            1.2438269526        4.3220776341        1.9999934733
Zr            1.2403777798        4.3541235456        8.1497619820
Zr            4.0961727031        4.3220774896        1.9999935066
Zr            4.0996221848        4.3541234362        8.1497619906
H             4.7686284833        4.8925637315        5.3911844266


     kinetic energy (Ekin) =          90.55574202 Ry
     temperature           =      680839.08764387 K 
     Ekin + Etot (const)   =       -2852.50992144 Ry
     Ions kinetic stress =         1749.13 (kbar)
                                   2623.76        2272.21        1311.82
                                   2272.21        1967.76        1136.05
                                   1311.82        1136.05         655.88



     File outdir/pwscf.msd.dat deleted, as requested

     Writing config-only to output data dir outdir/pwscf.save/
     NEW-OLD atomic charge density approx. for the potential

     Check: negative core charge=   -0.000002

     negative rho (up, down):  9.084E-01 9.084E-01
     Generating pointlists ...
     new r_m :   0.0436 (alat units)  0.7032 (a.u.) for type    3
     new r_m :   0.0436 (alat units)  0.7032 (a.u.) for type    5

     total cpu time spent up to now is      285.1 secs

     Self-consistent Calculation

     iteration #  1     ecut=   120.00 Ry     beta= 0.70
     Davidson diagonalization with overlap
     ethr =  1.00E-06,  avg # of iterations = 19.5

     negative rho (up, down):  9.102E-01 9.102E-01

     total cpu time spent up to now is      325.3 secs

     total energy              =   -2941.49683147 Ry
     estimated scf accuracy    <       0.68447628 Ry

     total magnetization       =    -0.05 Bohr mag/cell
     absolute magnetization    =     0.06 Bohr mag/cell

     iteration #  2     ecut=   120.00 Ry     beta= 0.70
     Davidson diagonalization with overlap
     ethr =  2.47E-04,  avg # of iterations =  6.0

     negative rho (up, down):  9.093E-01 9.093E-01

     total cpu time spent up to now is      340.6 secs

     total energy              =   -2941.61718877 Ry
     estimated scf accuracy    <       0.25275752 Ry

     total magnetization       =    -0.05 Bohr mag/cell
     absolute magnetization    =     0.05 Bohr mag/cell

     iteration #  3     ecut=   120.00 Ry     beta= 0.70
     Davidson diagonalization with overlap
     ethr =  9.12E-05,  avg # of iterations =  3.0

     negative rho (up, down):  9.086E-01 9.086E-01

     total cpu time spent up to now is      354.3 secs

     total energy              =   -2941.62845379 Ry
     estimated scf accuracy    <       0.02162001 Ry

     total magnetization       =    -0.05 Bohr mag/cell
     absolute magnetization    =     0.05 Bohr mag/cell

     iteration #  4     ecut=   120.00 Ry     beta= 0.70
     Davidson diagonalization with overlap
     c_bands:  1 eigenvalues not converged
     c_bands:  1 eigenvalues not converged
     ethr =  7.81E-06,  avg # of iterations = 20.0

     negative rho (up, down):  9.084E-01 9.084E-01

     total cpu time spent up to now is      385.9 secs

     total energy              =   -2941.63095646 Ry
     estimated scf accuracy    <       0.00463734 Ry

     total magnetization       =    -0.05 Bohr mag/cell
     absolute magnetization    =     0.05 Bohr mag/cell

     iteration #  5     ecut=   120.00 Ry     beta= 0.70
     Davidson diagonalization with overlap
     c_bands:  1 eigenvalues not converged
     c_bands:  1 eigenvalues not converged
     ethr =  1.67E-06,  avg # of iterations = 20.0

     negative rho (up, down):  9.084E-01 9.084E-01

     total cpu time spent up to now is      419.9 secs

     total energy              =   -2941.63099241 Ry
     estimated scf accuracy    <       0.00137868 Ry

     total magnetization       =    -0.05 Bohr mag/cell
     absolute magnetization    =     0.05 Bohr mag/cell

     iteration #  6     ecut=   120.00 Ry     beta= 0.70
     Davidson diagonalization with overlap
     ethr =  4.98E-07,  avg # of iterations =  2.0

     negative rho (up, down):  9.085E-01 9.085E-01

     Magnetic moment per site  (integrated on atomic sphere of radius R)
     atom   1 (R=0.118)  charge=  9.1858    0.0000
     atom   2 (R=0.118)  charge=  8.8357   -0.0001
     atom   3 (R=0.118)  charge=  8.8362   -0.0002
     atom   4 (R=0.118)  charge=  8.8368   -0.0001
     atom   5 (R=0.118)  charge=  8.8316   -0.0002
     atom   6 (R=0.120)  charge= 10.3319    0.0000
     atom   7 (R=0.120)  charge= 10.3461   -0.0001
     atom   8 (R=0.044)  charge=  0.7847   -0.0000
     atom   9 (R=0.044)  charge=  0.7973   -0.0000
     atom  10 (R=0.044)  charge=  0.7837   -0.0000
     atom  11 (R=0.044)  charge=  0.7828   -0.0000
     atom  12 (R=0.044)  charge=  0.7831   -0.0001
     atom  13 (R=0.044)  charge=  0.7837   -0.0000
     atom  14 (R=0.044)  charge=  0.7831   -0.0000
     atom  15 (R=0.044)  charge=  0.7824   -0.0000
     atom  16 (R=0.044)  charge=  0.7831   -0.0000
     atom  17 (R=0.044)  charge=  0.7834   -0.0000
     atom  18 (R=0.122)  charge=  9.4490    0.0001
     atom  19 (R=0.122)  charge=  8.9978   -0.0018
     atom  20 (R=0.122)  charge=  8.9959    0.0001
     atom  21 (R=0.122)  charge=  8.9956   -0.0019
     atom  22 (R=0.122)  charge=  8.9978   -0.0002
     atom  23 (R=0.044)  charge=  0.7271   -0.0000

     total cpu time spent up to now is      447.0 secs

     End of self-consistent calculation

 ------ SPIN UP ------------


          k = 0.0000 0.0000 0.0000 ( 56324 PWs)   bands (ev):

   -59.9652 -59.7747 -59.7634 -59.7290 -59.7197 -59.7019 -59.6877 -59.6573
   -59.6456 -59.5780 -53.3778 -53.3320 -53.2520 -53.2064 -51.7149 -45.3405
   -45.2650 -40.6311 -40.6198 -40.5314 -40.5247 -38.8355 -28.9476 -26.7746
   -26.7707 -26.6919 -26.6826 -26.5899 -26.5801 -26.4686 -26.4598 -26.3537
   -26.3183 -26.2924 -26.2544 -26.2448 -26.2362 -26.2122 -26.1900 -26.1584
   -26.1423 -26.1119 -25.9603 -25.9472 -25.9445 -25.9388 -25.8833 -25.8809
   -25.8620 -25.8509 -25.7903 -25.7415 -23.1735 -22.9554 -22.6690 -22.5664
   -22.3132 -22.1807 -22.1554 -22.0537 -21.9387 -21.8550 -21.8437 -21.6153
   -21.5828 -21.4774 -21.4070 -21.3642 -21.2989 -21.2476 -20.7745 -20.7032
   -20.6358 -19.2019 -18.9155 -18.8414 -18.8203 -18.6075 -18.6014 -18.5780
   -18.5732 -18.5629 -18.5244 -18.3614 -18.3465 -17.1776 -16.9689 -16.8485
     2.3627   3.3228   3.9322   4.1482   4.2640   4.4791   4.5196   4.6484
     4.7066   4.8734   4.9254   5.0610   5.1776   5.3912   5.6608   5.6889
     5.7590   5.8133   6.0381   6.0774   6.1681   6.2712   6.3111   6.3226
     6.3700   6.5419   6.7040   6.7222   6.7376   6.7446   6.7695   6.8908
     6.9708   7.1115   7.1807   7.2541   7.2622   7.3569   7.3684   7.3715
     7.4076   7.6207   7.7021   7.8045   7.9375   7.9494   7.9948   8.1162
     8.1658   8.2159   8.2517   8.3056   8.3197   8.4414   8.5281   8.5574
     8.6258   8.7749   8.8760   8.9502   9.0775   9.0915   9.2164   9.2929
     9.3184   9.3514   9.3738   9.4268   9.4601   9.6133   9.6939   9.7151
     9.9079   9.9620  10.0792  10.1045  10.1258  10.2497  10.2718

 ------ SPIN DOWN ----------


          k = 0.0000 0.0000 0.0000 ( 56324 PWs)   bands (ev):

   -59.9652 -59.7758 -59.7640 -59.7301 -59.7203 -59.7030 -59.6882 -59.6583
   -59.6461 -59.5781 -53.3779 -53.3321 -53.2521 -53.2065 -51.7149 -45.3405
   -45.2651 -40.6328 -40.6198 -40.5313 -40.5263 -38.8354 -28.9477 -26.7760
   -26.7716 -26.6934 -26.6835 -26.5913 -26.5809 -26.4701 -26.4608 -26.3541
   -26.3193 -26.2929 -26.2556 -26.2455 -26.2369 -26.2130 -26.1905 -26.1596
   -26.1429 -26.1122 -25.9617 -25.9480 -25.9452 -25.9403 -25.8842 -25.8824
   -25.8635 -25.8516 -25.7904 -25.7416 -23.1737 -22.9555 -22.6692 -22.5665
   -22.3133 -22.1808 -22.1555 -22.0538 -21.9388 -21.8551 -21.8438 -21.6154
   -21.5828 -21.4775 -21.4071 -21.3642 -21.2991 -21.2477 -20.7746 -20.7032
   -20.6358 -19.2036 -18.9151 -18.8432 -18.8220 -18.6082 -18.6025 -18.5787
   -18.5735 -18.5637 -18.5246 -18.3637 -18.3464 -17.1776 -16.9689 -16.8487
     2.3620   3.3222   3.9307   4.1477   4.2636   4.4785   4.5179   4.6479
     4.7058   4.8728   4.9240   5.0603   5.1765   5.3905   5.6602   5.6878
     5.7581   5.8123   6.0366   6.0763   6.1673   6.2700   6.3100   6.3217
     6.3684   6.5412   6.7029   6.7216   6.7365   6.7440   6.7685   6.8902
     6.9698   7.1100   7.1797   7.2533   7.2614   7.3558   7.3674   7.3701
     7.4067   7.6197   7.7013   7.8034   7.9360   7.9472   7.9931   8.1144
     8.1626   8.2118   8.2482   8.3031   8.3180   8.4369   8.5259   8.5549
     8.6240   8.7732   8.8746   8.9488   9.0760   9.0891   9.2147   9.2918
     9.3155   9.3493   9.3721   9.4250   9.4588   9.6115   9.6925   9.7139
     9.9066   9.9599  10.0767  10.1041  10.1252  10.2490  10.2710

     the Fermi energy is     8.2590 ev

!    total energy              =   -2941.63108657 Ry
     estimated scf accuracy    <       0.00026651 Ry
     smearing contrib. (-TS)   =      -0.10774397 Ry
     internal energy E=F+TS    =   -2941.52334260 Ry

     total magnetization       =    -0.04 Bohr mag/cell
     absolute magnetization    =     0.05 Bohr mag/cell

     convergence has been achieved in   6 iterations

     negative rho (up, down):  9.085E-01 9.085E-01

     Forces acting on atoms (cartesian axes, Ry/au):

     atom    1 type  1   force =     0.01149330   -0.01794189    0.01577126
     atom    2 type  1   force =    -0.12146835   -0.01638731   -0.00041200
     atom    3 type  1   force =    -0.12038603    0.01260786    0.00431465
     atom    4 type  1   force =     0.13251203   -0.01674795    0.00010169
     atom    5 type  1   force =     0.11962830    0.00329159    0.00655378
     atom    6 type  2   force =     0.02264389   -0.00395192    0.01730698
     atom    7 type  2   force =    -0.00831538    0.01190085   -0.01061987
     atom    8 type  3   force =    -0.12839660    0.01421287    0.01071627
     atom    9 type  3   force =    -2.37441153   -2.18042345   -1.29953975
     atom   10 type  3   force =    -0.02985327   -0.02975204   -0.06162584
     atom   11 type  3   force =    -0.02318999   -0.03485195    0.05748761
     atom   12 type  3   force =    -0.02184176    0.03361825   -0.05869302
     atom   13 type  3   force =    -0.01503750    0.02815301    0.06104427
     atom   14 type  3   force =     0.01949238   -0.02477821   -0.05755095
     atom   15 type  3   force =     0.01745564   -0.03394352    0.06023940
     atom   16 type  3   force =     0.01958790    0.03458378   -0.05461362
     atom   17 type  3   force =     0.01342498    0.02986095    0.05731806
     atom   18 type  4   force =     0.01146098    0.02403470   -0.00402099
     atom   19 type  4   force =    -0.13967373   -0.00547075   -0.11896959
     atom   20 type  4   force =    -0.13881605    0.00321526    0.11439056
     atom   21 type  4   force =     0.13519674   -0.00654805   -0.11591182
     atom   22 type  4   force =     0.13283599    0.00311297    0.11597038
     atom   23 type  5   force =     2.48565805    2.17220493    1.26074253
     The non-local contrib.  to forces
     atom    1 type  1   force =     0.01568953   -0.00158601    0.02547821
     atom    2 type  1   force =    -0.24880845   -0.16671575    0.01690241
     atom    3 type  1   force =    -0.24345507    0.15806931   -0.02462632
     atom    4 type  1   force =     0.24816791   -0.16112398    0.01980533
     atom    5 type  1   force =     0.23648332    0.15404428   -0.02659134
     atom    6 type  2   force =     0.00027090   -0.05649873   -0.06317130
     atom    7 type  2   force =    -0.00464975    0.07455835    0.06196806
     atom    8 type  3   force =    -0.24299151   -0.00347401   -0.00662050
     atom    9 type  3   force =     1.11883562    0.76193410    0.42548801
     atom   10 type  3   force =    -0.22861930   -0.00444105   -0.22887274
     atom   11 type  3   force =    -0.22815933    0.01199754    0.20338796
     atom   12 type  3   force =    -0.21262599   -0.02159119   -0.18637029
     atom   13 type  3   force =    -0.21342309   -0.01370995    0.20759996
     atom   14 type  3   force =     0.21248407    0.00461480   -0.21828361
     atom   15 type  3   force =     0.22105422    0.00634044    0.20745012
     atom   16 type  3   force =     0.20570237   -0.02355187   -0.18206725
     atom   17 type  3   force =     0.21898449   -0.01179589    0.20764780
     atom   18 type  4   force =    -0.01036611    0.07397905   -0.05385443
     atom   19 type  4   force =     0.07366336    0.00614285    0.07652828
     atom   20 type  4   force =     0.06431790   -0.01246510   -0.06549033
     atom   21 type  4   force =    -0.06220075    0.01064698    0.06789334
     atom   22 type  4   force =    -0.05680769   -0.00867231   -0.04976704
     atom   23 type  5   force =    -0.10338225   -0.09926292   -0.05902204
     The ionic contribution  to forces
     atom    1 type  1   force =    -0.35188245   -4.92558203   14.40884331
     atom    2 type  1   force =   -35.72584871   -6.19949836    0.75610097
     atom    3 type  1   force =   -35.75796803    6.26947650   -0.74351918
     atom    4 type  1   force =    35.56832447   -6.37382889    0.72991177
     atom    5 type  1   force =    35.39667754    6.92639261   -0.82723669
     atom    6 type  2   force =    -0.26985272   -3.80243520  -14.37175158
     atom    7 type  2   force =    -0.72846140    3.92291787   14.59057441
     atom    8 type  3   force =   -47.84367066   -0.01111145   -0.12121775
     atom    9 type  3   force =    41.27063531   -5.37236248   -3.23347638
     atom   10 type  3   force =   -32.22108622   -2.11974809  -23.49648430
     atom   11 type  3   force =   -31.30009633   -0.87859526   22.51575859
     atom   12 type  3   force =   -31.41787915    0.85172447  -22.57144365
     atom   13 type  3   force =   -32.22879462    2.26199052   23.52732499
     atom   14 type  3   force =    32.14850040   -2.15712838  -23.55991846
     atom   15 type  3   force =    31.20624658   -0.93898548   22.59933300
     atom   16 type  3   force =    31.31395080    0.93628378  -22.69194556
     atom   17 type  3   force =    32.07695532    2.41514763   23.70898257
     atom   18 type  4   force =    -0.44391721    4.56012916  -14.47551673
     atom   19 type  4   force =   -32.23087489    0.93287718  -25.99534646
     atom   20 type  4   force =   -32.23648367   -0.99182207   26.01262446
     atom   21 type  4   force =    32.07798096    0.88579921  -26.26349993
     atom   22 type  4   force =    31.97546411   -1.08983693   26.51372545
     atom   23 type  5   force =     9.72208056    4.89819568    2.98817716
     The local contribution  to forces
     atom    1 type  1   force =     0.34791321    4.90834315  -14.40990467
     atom    2 type  1   force =    35.86423311    6.35130681   -0.77148136
     atom    3 type  1   force =    35.89319414   -6.41564119    0.77745102
     atom    4 type  1   force =   -35.69606226    6.52194074   -0.74718936
     atom    5 type  1   force =   -35.52778440   -7.07531722    0.86661883
     atom    6 type  2   force =     0.29337583    3.85173347   14.44926780
     atom    7 type  2   force =     0.72657126   -3.98441726  -14.64957394
     atom    8 type  3   force =    47.99207259    0.02671237    0.14364947
     atom    9 type  3   force =   -44.86791381    2.36545610    1.48209141
     atom   10 type  3   force =    32.43917872    2.08459105   23.67526430
     atom   11 type  3   force =    31.53016062    0.82194991  -22.67614428
     atom   12 type  3   force =    31.62738242   -0.78482661   22.70702629
     atom   13 type  3   force =    32.45081046   -2.21046647  -23.68385321
     atom   14 type  3   force =   -32.36372291    2.12143240   23.73245816
     atom   15 type  3   force =   -31.43421444    0.88915776  -22.76002874
     atom   16 type  3   force =   -31.52195996   -0.86976569   22.82543892
     atom   17 type  3   force =   -32.30395876   -2.36922203  -23.87088094
     atom   18 type  4   force =     0.46547910   -4.60769734   14.52146627
     atom   19 type  4   force =    32.02675436   -0.94447042   25.80152261
     atom   20 type  4   force =    32.04584272    1.00802712  -25.83664229
     atom   21 type  4   force =   -31.88927410   -0.90308657   26.08324365
     atom   22 type  4   force =   -31.79675895    1.10320934  -26.35270165
     atom   23 type  5   force =    -7.13630067   -2.62845515   -1.66815813
     The core correction contribution to forces
     atom    1 type  1   force =     0.00267438    0.00280065   -0.00258612
     atom    2 type  1   force =    -0.01172046   -0.00206161    0.00092887
     atom    3 type  1   force =    -0.01201059    0.00249226   -0.00165862
     atom    4 type  1   force =     0.01168704   -0.00185378    0.00139006
     atom    5 type  1   force =     0.00828003    0.00400339   -0.00127046
     atom    6 type  2   force =     0.00093976    0.00384789    0.00407330
     atom    7 type  2   force =     0.00030250   -0.00371359   -0.00247461
     atom    8 type  3   force =    -0.02874399    0.00048787    0.00014590
     atom    9 type  3   force =     0.08434109    0.05049753    0.02663813
     atom   10 type  3   force =    -0.02232269    0.00737230   -0.01698723
     atom   11 type  3   force =    -0.02517675    0.00895254    0.01834160
     atom   12 type  3   force =    -0.02236355   -0.01002920   -0.01535375
     atom   13 type  3   force =    -0.02215953   -0.00962354    0.01559756
     atom   14 type  3   force =     0.02228587    0.00837721   -0.01739216
     atom   15 type  3   force =     0.02402309    0.00928648    0.01752921
     atom   16 type  3   force =     0.02192341   -0.00982217   -0.01477323
     atom   17 type  3   force =     0.02217883   -0.00698146    0.01626373
     atom   18 type  4   force =     0.00087236   -0.00401180    0.00277326
     atom   19 type  4   force =    -0.01046473    0.00021159   -0.00994029
     atom   20 type  4   force =    -0.01004114    0.00033756    0.00932751
     atom   21 type  4   force =     0.00974124   -0.00005292   -0.00922286
     atom   22 type  4   force =     0.00962044    0.00008837    0.00818998
     atom   23 type  5   force =     0.00000000    0.00000000    0.00000000
     The Hubbard contrib.    to forces
     atom    1 type  1   force =     0.00000000    0.00000000    0.00000000
     atom    2 type  1   force =     0.00000000    0.00000000    0.00000000
     atom    3 type  1   force =     0.00000000    0.00000000    0.00000000
     atom    4 type  1   force =     0.00000000    0.00000000    0.00000000
     atom    5 type  1   force =     0.00000000    0.00000000    0.00000000
     atom    6 type  2   force =     0.00000000    0.00000000    0.00000000
     atom    7 type  2   force =     0.00000000    0.00000000    0.00000000
     atom    8 type  3   force =     0.00000000    0.00000000    0.00000000
     atom    9 type  3   force =     0.00000000    0.00000000    0.00000000
     atom   10 type  3   force =     0.00000000    0.00000000    0.00000000
     atom   11 type  3   force =     0.00000000    0.00000000    0.00000000
     atom   12 type  3   force =     0.00000000    0.00000000    0.00000000
     atom   13 type  3   force =     0.00000000    0.00000000    0.00000000
     atom   14 type  3   force =     0.00000000    0.00000000    0.00000000
     atom   15 type  3   force =     0.00000000    0.00000000    0.00000000
     atom   16 type  3   force =     0.00000000    0.00000000    0.00000000
     atom   17 type  3   force =     0.00000000    0.00000000    0.00000000
     atom   18 type  4   force =     0.00000000    0.00000000    0.00000000
     atom   19 type  4   force =     0.00000000    0.00000000    0.00000000
     atom   20 type  4   force =     0.00000000    0.00000000    0.00000000
     atom   21 type  4   force =     0.00000000    0.00000000    0.00000000
     atom   22 type  4   force =     0.00000000    0.00000000    0.00000000
     atom   23 type  5   force =     0.00000000    0.00000000    0.00000000
     The SCF correction term to forces
     atom    1 type  1   force =    -0.00000000   -0.00000000   -0.00000000
     atom    2 type  1   force =     0.00000000    0.00000000   -0.00000000
     atom    3 type  1   force =    -0.00000000   -0.00000000   -0.00000000
     atom    4 type  1   force =     0.00000000   -0.00000000   -0.00000000
     atom    5 type  1   force =     0.00000000   -0.00000000   -0.00000000
     atom    6 type  2   force =    -0.00000000   -0.00000000   -0.00000000
     atom    7 type  2   force =    -0.00000000    0.00000000   -0.00000000
     atom    8 type  3   force =    -0.00000000    0.00000000   -0.00000000
     atom    9 type  3   force =     0.00000000    0.00000000   -0.00000000
     atom   10 type  3   force =     0.00280806    0.00243983    0.00565759
     atom   11 type  3   force =    -0.00010636    0.00080938   -0.00365281
     atom   12 type  3   force =     0.00345635   -0.00169314    0.00765183
     atom   13 type  3   force =    -0.00165888   -0.00007148   -0.00542158
     atom   14 type  3   force =    -0.00024321   -0.00210817    0.00578857
     atom   15 type  3   force =     0.00015803    0.00022335   -0.00384074
     atom   16 type  3   force =    -0.00021688    0.00140579    0.00893696
     atom   17 type  3   force =    -0.00092305    0.00267876   -0.00449164
     atom   18 type  4   force =    -0.00079532    0.00160171    0.00131410
     atom   19 type  4   force =     0.00106001   -0.00026588    0.00846973
     atom   20 type  4   force =    -0.00264002   -0.00089618   -0.00522533
     atom   21 type  4   force =    -0.00123877    0.00011132    0.00587743
     atom   22 type  4   force =     0.00112992   -0.00170944   -0.00327291
     atom   23 type  5   force =     0.00307225    0.00169339   -0.00005101

     Total force =     3.557362     Total SCF correction =     0.022462


     Computing stress (Cartesian axis) and pressure


     negative rho (up, down):  9.085E-01 9.085E-01
          total   stress  (Ry/bohr**3)                   (kbar)     P=      146.17
   0.00125370   0.00050412   0.00028118          184.43       74.16       41.36
   0.00050412   0.00116946   0.00023353           74.16      172.03       34.35
   0.00028118   0.00023353   0.00055779           41.36       34.35       82.05


     Entering Dynamics:    iteration =     2
                           time      =   0.0004 pico-seconds


ATOMIC_POSITIONS (angstrom)
Hf            2.6699999570        2.8271230292        6.6039642186    0   0   0
Hf            1.2529906802        1.2862841814        5.0584662261    0   0   0
Hf            1.2554868986        7.3898042948        5.0880677674    0   0   0
Hf            4.0870092338        1.2862841814        5.0584662261    0   0   0
Hf            4.0845130154        7.3898042948        5.0880677674    0   0   0
Nb            2.6699999570        2.7969306055        3.5155832167    0   0   0
Nb            2.6699999570        5.8763786763        6.6349979432    0   0   0
Ta            1.2093730560        4.3409278516        5.0711258323    0   0   0
Ta            4.1306268580        4.3409278516        5.0711258323    0   0   0
Ta            1.3072497273        1.3141193910        2.0587723211
Ta            1.3027855914        1.3083872782        8.0945856092
Ta            1.3040072105        7.3758298724        2.0462307168
Ta            1.3077092470        7.3650862222        8.0860091517
Ta            4.0327496072        1.3141195803        2.0587725105
Ta            4.0372137233        1.3083870835        8.0945859299
Ta            4.0359926322        7.3758301788        2.0462310946
Ta            4.0322905373        7.3650869114        8.0860089463
Zr            2.6700012295        5.8662913014        3.5273824942
Zr            1.2438036051        4.3220766895        1.9999735900
Zr            1.2403545622        4.3541241676        8.1497812572
Zr            4.0961952896        4.3220762795        1.9999739998
Zr            4.0996447817        4.3541239375        8.1497814517
H             4.2878993883        4.4763777657        5.1509147924


     kinetic energy (Ekin) =          88.13420851 Ry
     temperature           =      662632.90188603 K 
     Ekin + Etot (const)   =       -2853.49687806 Ry
     Ions kinetic stress =         1702.36 (kbar)
                                   2554.07        2211.43        1276.77
                                   2211.43        1914.75        1105.49
                                   1276.77        1105.49         638.26



     Writing config-only to output data dir outdir/pwscf.save/
     NEW-OLD atomic charge density approx. for the potential

     Check: negative core charge=   -0.000002

     negative rho (up, down):  8.944E-01 8.944E-01
     Generating pointlists ...
     new r_m :   0.0107 (alat units)  0.1733 (a.u.) for type    3
     new r_m :   0.0107 (alat units)  0.1733 (a.u.) for type    5

     total cpu time spent up to now is      469.0 secs

     Self-consistent Calculation

     iteration #  1     ecut=   120.00 Ry     beta= 0.70
     Davidson diagonalization with overlap
     ethr =  1.00E-06,  avg # of iterations = 18.0

     negative rho (up, down):  8.867E-01 8.867E-01

     total cpu time spent up to now is      505.1 secs

     total energy              =   -2900.01157735 Ry
     estimated scf accuracy    <       0.33148899 Ry

     total magnetization       =    -0.04 Bohr mag/cell
     absolute magnetization    =     0.05 Bohr mag/cell

     iteration #  2     ecut=   120.00 Ry     beta= 0.70
     Davidson diagonalization with overlap
     ethr =  1.20E-04,  avg # of iterations =  3.0

     negative rho (up, down):  8.854E-01 8.854E-01

     total cpu time spent up to now is      519.5 secs

     total energy              =   -2900.03328598 Ry
     estimated scf accuracy    <       0.13926762 Ry

     total magnetization       =    -0.04 Bohr mag/cell
     absolute magnetization    =     0.04 Bohr mag/cell

     iteration #  3     ecut=   120.00 Ry     beta= 0.70
     Davidson diagonalization with overlap
     ethr =  5.03E-05,  avg # of iterations =  2.0

     negative rho (up, down):  8.841E-01 8.841E-01

     total cpu time spent up to now is      545.6 secs

     total energy              =   -2900.04485745 Ry
     estimated scf accuracy    <       0.01385425 Ry

     total magnetization       =    -0.04 Bohr mag/cell
     absolute magnetization    =     0.04 Bohr mag/cell

     iteration #  4     ecut=   120.00 Ry     beta= 0.70
     Davidson diagonalization with overlap
     ethr =  5.00E-06,  avg # of iterations =  7.0

     negative rho (up, down):  8.841E-01 8.841E-01

     total cpu time spent up to now is      581.0 secs

     total energy              =   -2900.04601240 Ry
     estimated scf accuracy    <       0.00192166 Ry

     total magnetization       =    -0.04 Bohr mag/cell
     absolute magnetization    =     0.04 Bohr mag/cell

     iteration #  5     ecut=   120.00 Ry     beta= 0.70
     Davidson diagonalization with overlap
     ethr =  6.94E-07,  avg # of iterations =  7.0

     negative rho (up, down):  8.842E-01 8.842E-01

     Magnetic moment per site  (integrated on atomic sphere of radius R)
     atom   1 (R=0.118)  charge=  9.1765    0.0000
     atom   2 (R=0.118)  charge=  8.8358   -0.0001
     atom   3 (R=0.118)  charge=  8.8356   -0.0001
     atom   4 (R=0.118)  charge=  8.8269   -0.0001
     atom   5 (R=0.118)  charge=  8.8297   -0.0001
     atom   6 (R=0.120)  charge= 10.3317    0.0000
     atom   7 (R=0.120)  charge= 10.3369   -0.0001
     atom   8 (R=0.011)  charge= -0.0210   -0.0000
     atom   9 (R=0.011)  charge= -0.0134    0.0000
     atom  10 (R=0.011)  charge= -0.0209    0.0000
     atom  11 (R=0.011)  charge= -0.0226    0.0000
     atom  12 (R=0.011)  charge= -0.0229    0.0000
     atom  13 (R=0.011)  charge= -0.0205    0.0000
     atom  14 (R=0.011)  charge= -0.0213    0.0000
     atom  15 (R=0.011)  charge= -0.0227    0.0000
     atom  16 (R=0.011)  charge= -0.0230    0.0000
     atom  17 (R=0.011)  charge= -0.0208    0.0000
     atom  18 (R=0.122)  charge=  9.4416    0.0001
     atom  19 (R=0.122)  charge=  8.9994   -0.0017
     atom  20 (R=0.122)  charge=  8.9958   -0.0002
     atom  21 (R=0.122)  charge=  8.9894   -0.0018
     atom  22 (R=0.122)  charge=  8.9872   -0.0003
     atom  23 (R=0.011)  charge=  0.0232   -0.0000

     total cpu time spent up to now is      608.4 secs

     End of self-consistent calculation

 ------ SPIN UP ------------


          k = 0.0000 0.0000 0.0000 ( 56324 PWs)   bands (ev):

   -64.7454 -59.7884 -59.7737 -59.7516 -59.7387 -59.7292 -59.7090 -59.6904
   -59.6604 -59.6459 -53.4338 -53.3503 -53.3095 -53.2259 -51.7294 -45.3253
   -45.3021 -40.6588 -40.6499 -40.5412 -40.5349 -38.8457 -29.8770 -29.0776
   -28.9597 -26.7856 -26.7713 -26.7025 -26.6846 -26.5976 -26.5866 -26.4905
   -26.4661 -26.4553 -26.3400 -26.3371 -26.3243 -26.2825 -26.2614 -26.2437
   -26.2276 -26.2154 -26.1656 -26.1496 -25.9616 -25.9507 -25.9484 -25.9457
   -25.8886 -25.8844 -25.8589 -25.8480 -23.2169 -22.9971 -22.6939 -22.5993
   -22.3460 -22.2146 -22.1786 -22.0837 -21.9764 -21.8902 -21.8706 -21.6478
   -21.5602 -21.5140 -21.4322 -21.3905 -21.3245 -21.2785 -20.7881 -20.7300
   -20.6567 -19.2145 -18.9324 -18.8705 -18.8255 -18.6419 -18.6338 -18.6015
   -18.5792 -18.5726 -18.5340 -18.3703 -18.3605 -17.1869 -16.9883 -16.8565
     2.4079   3.8987   3.9531   4.1056   4.2336   4.4857   4.5047   4.5496
     4.6347   4.8296   4.9202   5.0582   5.2700   5.4062   5.6303   5.6772
     5.7017   5.9632   6.0330   6.0883   6.1948   6.2514   6.2751   6.3543
     6.3939   6.5228   6.5613   6.6491   6.6946   6.7085   6.7569   6.9133
     6.9209   7.1065   7.1458   7.2323   7.2488   7.3303   7.3508   7.3529
     7.4986   7.6076   7.6897   7.8260   7.9362   7.9583   7.9753   8.1084
     8.1734   8.2290   8.2532   8.2985   8.3999   8.4739   8.5069   8.5832
     8.6002   8.7503   8.8593   9.0455   9.0894   9.1028   9.1376   9.2052
     9.2911   9.3462   9.3592   9.3750   9.4493   9.5442   9.6824   9.7482
     9.8346   9.8542   9.9378  10.0540  10.0825  10.1136  10.2535

 ------ SPIN DOWN ----------


          k = 0.0000 0.0000 0.0000 ( 56324 PWs)   bands (ev):

   -64.7456 -59.7891 -59.7742 -59.7516 -59.7394 -59.7297 -59.7099 -59.6909
   -59.6613 -59.6464 -53.4339 -53.3504 -53.3095 -53.2260 -51.7294 -45.3253
   -45.3021 -40.6604 -40.6502 -40.5414 -40.5364 -38.8456 -29.8772 -29.0777
   -28.9600 -26.7868 -26.7720 -26.7037 -26.6854 -26.5986 -26.5874 -26.4907
   -26.4671 -26.4562 -26.3407 -26.3373 -26.3248 -26.2831 -26.2621 -26.2442
   -26.2285 -26.2159 -26.1666 -26.1502 -25.9627 -25.9514 -25.9496 -25.9465
   -25.8898 -25.8852 -25.8601 -25.8486 -23.2169 -22.9972 -22.6941 -22.5994
   -22.3461 -22.2147 -22.1788 -22.0838 -21.9765 -21.8903 -21.8706 -21.6478
   -21.5602 -21.5140 -21.4324 -21.3906 -21.3247 -21.2786 -20.7882 -20.7299
   -20.6567 -19.2161 -18.9325 -18.8721 -18.8270 -18.6429 -18.6346 -18.6019
   -18.5801 -18.5732 -18.5343 -18.3725 -18.3608 -17.1869 -16.9883 -16.8567
     2.4072   3.8976   3.9525   4.1051   4.2331   4.4852   4.5033   4.5492
     4.6341   4.8291   4.9188   5.0572   5.2696   5.4058   5.6295   5.6761
     5.7010   5.9625   6.0319   6.0875   6.1941   6.2505   6.2744   6.3529
     6.3933   6.5223   6.5611   6.6482   6.6935   6.7077   6.7560   6.9128
     6.9197   7.1050   7.1451   7.2316   7.2481   7.3288   7.3499   7.3522
     7.4978   7.6067   7.6891   7.8249   7.9349   7.9567   7.9730   8.1068
     8.1695   8.2258   8.2522   8.2964   8.3955   8.4717   8.5037   8.5816
     8.5985   8.7493   8.8581   9.0441   9.0875   9.1021   9.1366   9.2038
     9.2884   9.3444   9.3577   9.3735   9.4482   9.5426   9.6812   9.7472
     9.8330   9.8533   9.9369  10.0530  10.0804  10.1128  10.2525

     the Fermi energy is     8.2695 ev

!    total energy              =   -2900.04607619 Ry
     estimated scf accuracy    <       0.00027944 Ry
     smearing contrib. (-TS)   =      -0.10539795 Ry
     internal energy E=F+TS    =   -2899.94067824 Ry

     total magnetization       =    -0.04 Bohr mag/cell
     absolute magnetization    =     0.04 Bohr mag/cell

     convergence has been achieved in   5 iterations

     negative rho (up, down):  8.842E-01 8.842E-01

     Forces acting on atoms (cartesian axes, Ry/au):

     atom    1 type  1   force =     0.01954631   -0.00475369   -0.00358888
     atom    2 type  1   force =    -0.12251745   -0.01442316   -0.00645023
     atom    3 type  1   force =    -0.12180861    0.01104458    0.00165526
     atom    4 type  1   force =     0.12487240   -0.00049919   -0.00575512
     atom    5 type  1   force =     0.12490596   -0.00384443    0.00246774
     atom    6 type  2   force =     0.02081773   -0.00028061    0.01770733
     atom    7 type  2   force =     0.01904686    0.00140250   -0.02015863
     atom    8 type  3   force =    -0.10058854    0.00489295   -0.00308727
     atom    9 type  3   force =  -103.29281808  -89.00910886  -52.43308094
     atom   10 type  3   force =    -0.02526494   -0.03408958   -0.05663168
     atom   11 type  3   force =    -0.02482627   -0.03727298    0.05617671
     atom   12 type  3   force =    -0.01922656    0.03803600   -0.05326915
     atom   13 type  3   force =    -0.02056452    0.03123115    0.06005868
     atom   14 type  3   force =     0.01995380   -0.02690078   -0.05783531
     atom   15 type  3   force =     0.02185164   -0.03153313    0.05754880
     atom   16 type  3   force =     0.01661770    0.03279681   -0.05305513
     atom   17 type  3   force =     0.01706422    0.02412501    0.05836878
     atom   18 type  4   force =     0.01645043    0.01211804    0.00314790
     atom   19 type  4   force =    -0.13603739   -0.00642724   -0.11831989
     atom   20 type  4   force =    -0.13963941    0.00634886    0.12033345
     atom   21 type  4   force =     0.13610944   -0.00685477   -0.10674031
     atom   22 type  4   force =     0.14173575    0.00516627    0.10857586
     atom   23 type  5   force =   103.32431952   89.00882627   52.43193201
     The non-local contrib.  to forces
     atom    1 type  1   force =    -0.00425912   -0.01146697    0.03700964
     atom    2 type  1   force =    -0.24942584   -0.16766223    0.01398365
     atom    3 type  1   force =    -0.24404355    0.16117913   -0.02792466
     atom    4 type  1   force =     0.24552579   -0.15507401    0.01410006
     atom    5 type  1   force =     0.23995068    0.14855493   -0.02818863
     atom    6 type  2   force =    -0.01511738   -0.06438579   -0.05782867
     atom    7 type  2   force =    -0.00760319    0.07132014    0.05215240
     atom    8 type  3   force =    -0.24832983   -0.00089558   -0.00553988
     atom    9 type  3   force =     0.14751459   -0.04533957   -0.02925960
     atom   10 type  3   force =    -0.21265118    0.01149453   -0.20636681
     atom   11 type  3   force =    -0.22623714    0.01427087    0.19621585
     atom   12 type  3   force =    -0.20148023   -0.03091990   -0.17676830
     atom   13 type  3   force =    -0.21105072   -0.01094647    0.20549585
     atom   14 type  3   force =     0.21811978    0.00421767   -0.20785860
     atom   15 type  3   force =     0.22955235    0.00806115    0.19755065
     atom   16 type  3   force =     0.20813580   -0.02227988   -0.18206888
     atom   17 type  3   force =     0.21322185   -0.00596585    0.20762824
     atom   18 type  4   force =    -0.00600183    0.06357693   -0.05512721
     atom   19 type  4   force =     0.06698210    0.00791724    0.07452952
     atom   20 type  4   force =     0.06285986   -0.01250144   -0.06884639
     atom   21 type  4   force =    -0.06186552    0.00700961    0.07087108
     atom   22 type  4   force =    -0.05621575   -0.01220900   -0.06890740
     atom   23 type  5   force =    -0.01542009    0.01343949    0.00513840
     The ionic contribution  to forces
     atom    1 type  1   force =    -0.46878768   -5.05375004   14.62613046
     atom    2 type  1   force =   -35.78946817   -6.26452217    0.77162431
     atom    3 type  1   force =   -35.79213209    6.27979035   -0.72012559
     atom    4 type  1   force =    35.61698803   -6.58373534    0.76044693
     atom    5 type  1   force =    35.58476887    6.72613307   -0.73080166
     atom    6 type  2   force =    -0.44036215   -3.98737979  -14.56658382
     atom    7 type  2   force =    -0.59269092    4.08416109   14.69719596
     atom    8 type  3   force =   -48.11410316    0.04079248   -0.08589915
     atom    9 type  3   force =   -56.56521042  -89.60961041  -52.89626249
     atom   10 type  3   force =   -32.25036685   -2.14987838  -23.52359596
     atom   11 type  3   force =   -31.32384942   -0.90321197   22.53140543
     atom   12 type  3   force =   -31.43958687    0.85841887  -22.58298315
     atom   13 type  3   force =   -32.23801666    2.25352765   23.52111056
     atom   14 type  3   force =    32.16757122   -2.21762619  -23.61119679
     atom   15 type  3   force =    31.23597946   -0.97966473   22.62578823
     atom   16 type  3   force =    31.34950187    0.94029676  -22.68691717
     atom   17 type  3   force =    32.13932034    2.34901304   23.63618801
     atom   18 type  4   force =    -0.49689908    4.77342969  -14.56625768
     atom   19 type  4   force =   -32.28947777    0.95057108  -26.04674604
     atom   20 type  4   force =   -32.27692806   -0.96538926   26.03826083
     atom   21 type  4   force =    32.12932291    0.93227119  -26.41332061
     atom   22 type  4   force =    32.09817946   -0.98318463   26.47022033
     atom   23 type  5   force =   107.75624712   89.50954766   52.75231907
     The local contribution  to forces
     atom    1 type  1   force =     0.48994514    5.06613756  -14.67458384
     atom    2 type  1   force =    35.92329604    6.42056587   -0.80287123
     atom    3 type  1   force =    35.91980517   -6.43287058    0.74153656
     atom    4 type  1   force =   -35.74250231    6.74059100   -0.79181419
     atom    5 type  1   force =   -35.69988471   -6.88563847    0.75612434
     atom    6 type  2   force =     0.47377149    4.04859297   14.63174046
     atom    7 type  2   force =     0.62105113   -4.15936711  -14.77393332
     atom    8 type  3   force =    48.28718184   -0.03548091    0.08076691
     atom    9 type  3   force =   -47.27015430    0.32522005    0.29780283
     atom   10 type  3   force =    32.45282366    2.09914291   23.69419078
     atom   11 type  3   force =    31.53773044    0.85287286  -22.69062947
     atom   12 type  3   force =    31.63563760   -0.77909594   22.72824146
     atom   13 type  3   force =    32.44195173   -2.21257113  -23.68568289
     atom   14 type  3   force =   -32.38763659    2.18452273   23.78448286
     atom   15 type  3   force =   -31.46332596    0.94150831  -22.78470066
     atom   16 type  3   force =   -31.56242310   -0.87897001   22.83807764
     atom   17 type  3   force =   -32.34977695   -2.32654498  -23.80528971
     atom   18 type  4   force =     0.51670246   -4.82356097   14.61571697
     atom   19 type  4   force =    32.09176186   -0.96785218   25.86522904
     atom   20 type  4   force =    32.07975727    0.98320614  -25.85955774
     atom   21 type  4   force =   -31.93755615   -0.94889717   26.24601543
     atom   22 type  4   force =   -31.90080866    1.00368920  -26.30648194
     atom   23 type  5   force =    -4.41598230   -0.51481781   -0.32690361
     The core correction contribution to forces
     atom    1 type  1   force =    -0.00002530    0.00218846    0.00169364
     atom    2 type  1   force =    -0.01203987   -0.00222083    0.00057179
     atom    3 type  1   force =    -0.01217177    0.00254824   -0.00136859
     atom    4 type  1   force =     0.01070226   -0.00139629    0.00058967
     atom    5 type  1   force =     0.00992280    0.00259156   -0.00119209
     atom    6 type  2   force =     0.00077610    0.00322965    0.00241012
     atom    7 type  2   force =     0.00052288   -0.00366794   -0.00206071
     atom    8 type  3   force =    -0.03005130    0.00057242   -0.00003231
     atom    9 type  3   force =     0.40046164    0.31282781    0.18437042
     atom   10 type  3   force =    -0.02157813    0.00851611   -0.01586854
     atom   11 type  3   force =    -0.02353738    0.00937153    0.01693330
     atom   12 type  3   force =    -0.02082320   -0.00994380   -0.01543977
     atom   13 type  3   force =    -0.02092399   -0.00867648    0.01605253
     atom   14 type  3   force =     0.02237487    0.00818221   -0.01632459
     atom   15 type  3   force =     0.02426391    0.00894144    0.01683646
     atom   16 type  3   force =     0.02207457   -0.00902955   -0.01568161
     atom   17 type  3   force =     0.02233113   -0.00803487    0.01639613
     atom   18 type  4   force =     0.00029009   -0.00348213    0.00257536
     atom   19 type  4   force =    -0.01006857    0.00010880   -0.00972744
     atom   20 type  4   force =    -0.00995805    0.00027386    0.00949322
     atom   21 type  4   force =     0.00976142    0.00014713   -0.00909879
     atom   22 type  4   force =     0.00960216    0.00025423    0.00905818
     atom   23 type  5   force =     0.00000000    0.00000000    0.00000000
     The Hubbard contrib.    to forces
     atom    1 type  1   force =     0.00000000    0.00000000    0.00000000
     atom    2 type  1   force =     0.00000000    0.00000000    0.00000000
     atom    3 type  1   force =     0.00000000    0.00000000    0.00000000
     atom    4 type  1   force =     0.00000000    0.00000000    0.00000000
     atom    5 type  1   force =     0.00000000    0.00000000    0.00000000
     atom    6 type  2   force =     0.00000000    0.00000000    0.00000000
     atom    7 type  2   force =     0.00000000    0.00000000    0.00000000
     atom    8 type  3   force =     0.00000000    0.00000000    0.00000000
     atom    9 type  3   force =     0.00000000    0.00000000    0.00000000
     atom   10 type  3   force =     0.00000000    0.00000000    0.00000000
     atom   11 type  3   force =     0.00000000    0.00000000    0.00000000
     atom   12 type  3   force =     0.00000000    0.00000000    0.00000000
     atom   13 type  3   force =     0.00000000    0.00000000    0.00000000
     atom   14 type  3   force =     0.00000000    0.00000000    0.00000000
     atom   15 type  3   force =     0.00000000    0.00000000    0.00000000
     atom   16 type  3   force =     0.00000000    0.00000000    0.00000000
     atom   17 type  3   force =     0.00000000    0.00000000    0.00000000
     atom   18 type  4   force =     0.00000000    0.00000000    0.00000000
     atom   19 type  4   force =     0.00000000    0.00000000    0.00000000
     atom   20 type  4   force =     0.00000000    0.00000000    0.00000000
     atom   21 type  4   force =     0.00000000    0.00000000    0.00000000
     atom   22 type  4   force =     0.00000000    0.00000000    0.00000000
     atom   23 type  5   force =     0.00000000    0.00000000    0.00000000
     The SCF correction term to forces
     atom    1 type  1   force =     0.00000000   -0.00000000    0.00000000
     atom    2 type  1   force =     0.00000000   -0.00000000    0.00000000
     atom    3 type  1   force =     0.00000000    0.00000000    0.00000000
     atom    4 type  1   force =    -0.00000000   -0.00000000    0.00000000
     atom    5 type  1   force =    -0.00000000    0.00000000    0.00000000
     atom    6 type  2   force =     0.00000000   -0.00000000    0.00000000
     atom    7 type  2   force =    -0.00000000    0.00000000    0.00000000
     atom    8 type  3   force =     0.00000000   -0.00000000    0.00000000
     atom    9 type  3   force =    -0.00000000    0.00000000    0.00000000
     atom   10 type  3   force =     0.00643600   -0.00342657   -0.00574065
     atom   11 type  3   force =     0.01099566   -0.01063807    0.00150209
     atom   12 type  3   force =     0.00695458   -0.00048503   -0.00706889
     atom   13 type  3   force =     0.00740356    0.00983576    0.00233313
[...]
     atom  17 (R=0.011)  charge= -0.0208    0.0000
     atom  18 (R=0.122)  charge=  9.4535    0.0000
     atom  19 (R=0.122)  charge=  8.9973   -0.0008
     atom  20 (R=0.122)  charge=  8.9931   -0.0003
     atom  21 (R=0.122)  charge=  8.9958   -0.0010
     atom  22 (R=0.122)  charge=  8.9965   -0.0006
     atom  23 (R=0.011)  charge=  0.0076   -0.0000

     total cpu time spent up to now is     1132.2 secs

     End of self-consistent calculation

 ------ SPIN UP ------------


          k = 0.0000 0.0000 0.0000 ( 56324 PWs)   bands (ev):

   -59.7628 -59.7591 -59.7207 -59.7140 -59.6846 -59.6734 -59.6405 -59.6317
   -59.5161 -59.3144 -53.3463 -53.2951 -53.2184 -53.1669 -51.6620 -45.2558
   -45.2191 -40.6325 -40.6084 -40.5371 -40.5072 -38.7712 -26.7638 -26.7587
   -26.6774 -26.6733 -26.5785 -26.5723 -26.4513 -26.4436 -26.3591 -26.3107
   -26.2854 -26.2504 -26.2389 -26.2142 -26.1993 -26.1523 -26.1426 -26.1265
   -26.0732 -25.9914 -25.9483 -25.9423 -25.9307 -25.9298 -25.9184 -25.8793
   -25.8698 -25.8615 -25.8403 -25.8342 -23.1333 -22.9182 -22.6241 -22.5257
   -22.2741 -22.1486 -22.1270 -22.0223 -21.8943 -21.8208 -21.7954 -21.5724
   -21.4836 -21.4243 -21.3685 -21.3353 -21.2417 -21.2016 -20.7264 -20.6556
   -20.5936 -19.1702 -18.9278 -18.8102 -18.8019 -18.6257 -18.5859 -18.5799
   -18.5703 -18.5545 -18.5186 -18.3511 -18.3378 -17.1178 -16.9137 -16.7904
     2.3604   3.5616   3.9500   4.1686   4.3530   4.4602   4.5512   4.7026
     4.7235   4.8315   4.9501   5.0777   5.2211   5.5280   5.6852   5.7146
     5.7941   5.8490   6.0621   6.1257   6.2053   6.2907   6.3129   6.3684
     6.4093   6.5747   6.6281   6.7362   6.7547   6.7721   6.7889   6.8410
     6.9826   7.0816   7.1873   7.2617   7.2891   7.3173   7.3893   7.3945
     7.4362   7.6237   7.6879   7.7600   7.9377   8.0040   8.0109   8.1189
     8.1797   8.2180   8.3163   8.3228   8.3473   8.4783   8.5446   8.5911
     8.6342   8.8161   8.8991   8.9716   9.1000   9.1070   9.2626   9.3191
     9.3342   9.3627   9.3820   9.4114   9.4689   9.6328   9.6941   9.7380
     9.9076   9.9741  10.0918  10.1272  10.1841  10.2673  10.2954

 ------ SPIN DOWN ----------


          k = 0.0000 0.0000 0.0000 ( 56324 PWs)   bands (ev):

   -59.7633 -59.7595 -59.7212 -59.7144 -59.6852 -59.6738 -59.6410 -59.6321
   -59.5162 -59.3143 -53.3464 -53.2952 -53.2185 -53.1670 -51.6620 -45.2559
   -45.2190 -40.6330 -40.6092 -40.5375 -40.5080 -38.7711 -26.7644 -26.7594
   -26.6782 -26.6738 -26.5791 -26.5729 -26.4520 -26.4443 -26.3592 -26.3112
   -26.2857 -26.2510 -26.2394 -26.2147 -26.1998 -26.1526 -26.1432 -26.1268
   -26.0733 -25.9913 -25.9487 -25.9429 -25.9311 -25.9303 -25.9190 -25.8796
   -25.8703 -25.8621 -25.8410 -25.8347 -23.1334 -22.9182 -22.6242 -22.5257
   -22.2741 -22.1487 -22.1271 -22.0224 -21.8944 -21.8209 -21.7955 -21.5725
   -21.4837 -21.4243 -21.3687 -21.3354 -21.2418 -21.2017 -20.7265 -20.6556
   -20.5936 -19.1711 -18.9283 -18.8111 -18.8028 -18.6262 -18.5865 -18.5804
   -18.5709 -18.5554 -18.5190 -18.3516 -18.3390 -17.1179 -16.9137 -16.7905
     2.3600   3.5612   3.9491   4.1683   4.3527   4.4596   4.5506   4.7024
     4.7233   4.8311   4.9492   5.0773   5.2205   5.5276   5.6848   5.7139
     5.7935   5.8486   6.0612   6.1252   6.2047   6.2901   6.3123   6.3677
     6.4085   6.5743   6.6278   6.7355   6.7540   6.7716   6.7885   6.8406
     6.9822   7.0808   7.1867   7.2612   7.2886   7.3167   7.3883   7.3940
     7.4356   7.6232   7.6873   7.7594   7.9369   8.0028   8.0095   8.1175
     8.1783   8.2154   8.3144   8.3220   8.3450   8.4761   8.5431   8.5895
     8.6331   8.8150   8.8983   8.9708   9.0991   9.1056   9.2617   9.3174
     9.3335   9.3615   9.3810   9.4106   9.4681   9.6316   9.6933   9.7372
     9.9069   9.9730  10.0903  10.1265  10.1834  10.2669  10.2944

     the Fermi energy is     8.2826 ev

!    total energy              =   -2943.10577880 Ry
     estimated scf accuracy    <       0.00046280 Ry
     smearing contrib. (-TS)   =      -0.10532961 Ry
     internal energy E=F+TS    =   -2943.00044919 Ry

     total magnetization       =    -0.03 Bohr mag/cell
     absolute magnetization    =     0.03 Bohr mag/cell

     convergence has been achieved in   5 iterations

     negative rho (up, down):  9.099E-01 9.099E-01

     Forces acting on atoms (cartesian axes, Ry/au):

     atom    1 type  1   force =    -0.00171138   -0.02165390    0.00857544
     atom    2 type  1   force =    -0.12206300   -0.01698724   -0.00672896
     atom    3 type  1   force =    -0.12206745    0.01276238   -0.00010667
     atom    4 type  1   force =     0.12451510   -0.01026727   -0.01021524
     atom    5 type  1   force =     0.13863786   -0.01368960    0.00216575
     atom    6 type  2   force =    -0.01129902   -0.02069189    0.00353185
     atom    7 type  2   force =    -0.02518575    0.01020286   -0.01064383
     atom    8 type  3   force =    -0.11518986    0.00537517   -0.00088536
     atom    9 type  3   force =     0.13163743    0.00060576   -0.01379779
     atom   10 type  3   force =    -0.02171072   -0.02976094   -0.05648908
     atom   11 type  3   force =    -0.02518266   -0.03228148    0.05800485
     atom   12 type  3   force =    -0.01915976    0.03375943   -0.05211222
     atom   13 type  3   force =    -0.01243639    0.02760875    0.06313228
     atom   14 type  3   force =     0.02301769   -0.02995050   -0.05636465
     atom   15 type  3   force =     0.02173366   -0.03634057    0.06068489
     atom   16 type  3   force =     0.02077725    0.03768923   -0.04981128
     atom   17 type  3   force =     0.01197798    0.04076117    0.06397777
     atom   18 type  4   force =    -0.00229425    0.02684055   -0.01106000
     atom   19 type  4   force =    -0.13498099   -0.00516417   -0.11434641
     atom   20 type  4   force =    -0.13417386    0.00555868    0.11605396
     atom   21 type  4   force =     0.13152495   -0.00825117   -0.11432531
     atom   22 type  4   force =     0.13986830    0.00200414    0.11423616
     atom   23 type  5   force =     0.00376487    0.02187060    0.00652385
     The non-local contrib.  to forces
     atom    1 type  1   force =     0.00221906   -0.00968280    0.03199341
     atom    2 type  1   force =    -0.25138595   -0.16149381    0.01081300
     atom    3 type  1   force =    -0.24306244    0.15321841   -0.02282134
     atom    4 type  1   force =     0.24879904   -0.16705047    0.01753682
     atom    5 type  1   force =     0.24592714    0.14231144   -0.01023453
     atom    6 type  2   force =     0.00868885   -0.06407845   -0.06787876
     atom    7 type  2   force =    -0.02432257    0.07378745    0.06506188
     atom    8 type  3   force =    -0.26065471    0.00552886    0.00065795
     atom    9 type  3   force =     0.13277850   -0.07161782   -0.03548534
     atom   10 type  3   force =    -0.21803337    0.00420016   -0.21010797
     atom   11 type  3   force =    -0.22179927    0.00849259    0.20297704
     atom   12 type  3   force =    -0.21021215   -0.02602600   -0.17859919
     atom   13 type  3   force =    -0.21490535   -0.00871036    0.20670259
     atom   14 type  3   force =     0.21460100    0.00434259   -0.21842901
     atom   15 type  3   force =     0.22040175    0.00606030    0.20140628
     atom   16 type  3   force =     0.20789332   -0.02235711   -0.18431071
     atom   17 type  3   force =     0.24875799   -0.02829054    0.17892643
     atom   18 type  4   force =    -0.01015288    0.06880174   -0.06089324
     atom   19 type  4   force =     0.06563818    0.00783356    0.07322146
     atom   20 type  4   force =     0.06182029   -0.01720697   -0.06169910
     atom   21 type  4   force =    -0.06440041    0.01226607    0.06882087
     atom   22 type  4   force =    -0.05996245   -0.00851213   -0.05657003
     atom   23 type  5   force =    -0.03903992   -0.01974661   -0.01895788
     The ionic contribution  to forces
     atom    1 type  1   force =    -0.20003909   -4.77347685   14.26146187
     atom    2 type  1   force =   -35.65921670   -6.13920767    0.73600810
     atom    3 type  1   force =   -35.64824939    6.24764159   -0.78138827
     atom    4 type  1   force =    35.54138933   -6.16585234    0.70306649
     atom    5 type  1   force =    35.07095981    6.89269634   -1.01723470
     atom    6 type  2   force =    -0.12889236   -3.65747454  -14.25148066
     atom    7 type  2   force =    -0.61801541    3.66699478   14.35289186
     atom    8 type  3   force =   -47.56915530   -0.04358854   -0.15550286
     atom    9 type  3   force =    46.16672479   -1.11721367   -0.83322182
     atom   10 type  3   force =   -32.18754398   -2.08860040  -23.46829185
     atom   11 type  3   force =   -31.25966224   -0.84213316   22.50128806
     atom   12 type  3   force =   -31.37424462    0.83640214  -22.54990078
     atom   13 type  3   force =   -32.17455091    2.26522080   23.53351876
     atom   14 type  3   force =    32.13562361   -2.09468488  -23.50474335
     atom   15 type  3   force =    31.17151767   -0.85773154   22.56387659
     atom   16 type  3   force =    31.27995547    0.89272058  -22.65080165
     atom   17 type  3   force =    31.92451166    2.47513889   23.79778135
     atom   18 type  4   force =    -0.26850424    4.38474167  -14.32651493
     atom   19 type  4   force =   -32.16314459    0.92106995  -25.93902653
     atom   20 type  4   force =   -32.14179134   -1.02364131   25.97983917
     atom   21 type  4   force =    32.06456274    0.87770802  -26.06560346
     atom   22 type  4   force =    31.82922183   -1.21069367   26.38344720
     atom   23 type  5   force =     4.20854326    0.55396381    0.73053138
     The local contribution  to forces
     atom    1 type  1   force =     0.19315532    4.75751369  -14.29388667
     atom    2 type  1   force =    35.79829032    6.28292925   -0.77010991
     atom    3 type  1   force =    35.77709001   -6.39039534    0.78942808
     atom    4 type  1   force =   -35.67295210    6.32130117   -0.75228229
     atom    5 type  1   force =   -35.17224949   -7.05965439    1.01520563
     atom    6 type  2   force =     0.11082387    3.68658524   14.30726558
     atom    7 type  2   force =     0.61714851   -3.72280966  -14.43856623
     atom    8 type  3   force =    47.73356968    0.04336873    0.13852590
     atom    9 type  3   force =   -46.16699146    1.20114357    0.84374982
     atom   10 type  3   force =    32.40492183    2.04063502   23.64907343
     atom   11 type  3   force =    31.47672105    0.79756212  -22.66940237
     atom   12 type  3   force =    31.58750325   -0.76370716   22.70218874
     atom   13 type  3   force =    32.39794567   -2.22674819  -23.69839931
     atom   14 type  3   force =   -32.34474419    2.04620415   23.69634232
     atom   15 type  3   force =   -31.39069457    0.80999535  -22.72465868
     atom   16 type  3   force =   -31.48682730   -0.81922867   22.81255339
     atom   17 type  3   force =   -32.18444538   -2.40491837  -23.93042185
     atom   18 type  4   force =     0.27710833   -4.40992853   14.36015786
     atom   19 type  4   force =    31.96781558   -0.93312883   25.76826580
     atom   20 type  4   force =    31.95376895    1.04687904  -25.81387164
     atom   21 type  4   force =   -31.87066475   -0.89732977   25.89651721
     atom   22 type  4   force =   -31.63493627    1.22347958  -26.22324259
     atom   23 type  5   force =    -4.16279499   -0.51084348   -0.70775271
     The core correction contribution to forces
     atom    1 type  1   force =     0.00029842    0.00218732   -0.00075414
     atom    2 type  1   force =    -0.01099356   -0.00106892    0.00036565
     atom    3 type  1   force =    -0.01201268    0.00228543   -0.00141253
     atom    4 type  1   force =     0.01145029   -0.00204205    0.00241470
     atom    5 type  1   force =     0.00698904    0.00588944   -0.00207147
     atom    6 type  2   force =    -0.00041030    0.00307572    0.00287283
     atom    7 type  2   force =     0.00130149   -0.00371363   -0.00259153
     atom    8 type  3   force =    -0.03036903    0.00143441    0.00062630
     atom    9 type  3   force =     0.01449787   -0.01008103   -0.00500253
     atom   10 type  3   force =    -0.02269516    0.00848942   -0.01651807
     atom   11 type  3   force =    -0.02506704    0.00865706    0.01855090
     atom   12 type  3   force =    -0.02196907   -0.00987055   -0.01487271
     atom   13 type  3   force =    -0.02305188   -0.00919090    0.01598827
     atom   14 type  3   force =     0.02211561    0.00897689   -0.01653326
     atom   15 type  3   force =     0.02399731    0.00953615    0.01605507
     atom   16 type  3   force =     0.02315972   -0.01064740   -0.01500356
     atom   17 type  3   force =     0.02477415   -0.00910511    0.01318076
     atom   18 type  4   force =     0.00051348   -0.00346859    0.00278484
     atom   19 type  4   force =    -0.01001609    0.00013723   -0.00959675
     atom   20 type  4   force =    -0.00990151    0.00057109    0.00900156
     atom   21 type  4   force =     0.00994575   -0.00006513   -0.00938213
     atom   22 type  4   force =     0.01021697    0.00046553    0.00818004
     atom   23 type  5   force =     0.00000000    0.00000000    0.00000000
     The Hubbard contrib.    to forces
     atom    1 type  1   force =     0.00000000    0.00000000    0.00000000
     atom    2 type  1   force =     0.00000000    0.00000000    0.00000000
     atom    3 type  1   force =     0.00000000    0.00000000    0.00000000
     atom    4 type  1   force =     0.00000000    0.00000000    0.00000000
     atom    5 type  1   force =     0.00000000    0.00000000    0.00000000
     atom    6 type  2   force =     0.00000000    0.00000000    0.00000000
     atom    7 type  2   force =     0.00000000    0.00000000    0.00000000
     atom    8 type  3   force =     0.00000000    0.00000000    0.00000000
     atom    9 type  3   force =     0.00000000    0.00000000    0.00000000
     atom   10 type  3   force =     0.00000000    0.00000000    0.00000000
     atom   11 type  3   force =     0.00000000    0.00000000    0.00000000
     atom   12 type  3   force =     0.00000000    0.00000000    0.00000000
     atom   13 type  3   force =     0.00000000    0.00000000    0.00000000
     atom   14 type  3   force =     0.00000000    0.00000000    0.00000000
     atom   15 type  3   force =     0.00000000    0.00000000    0.00000000
     atom   16 type  3   force =     0.00000000    0.00000000    0.00000000
     atom   17 type  3   force =     0.00000000    0.00000000    0.00000000
     atom   18 type  4   force =     0.00000000    0.00000000    0.00000000
     atom   19 type  4   force =     0.00000000    0.00000000    0.00000000
     atom   20 type  4   force =     0.00000000    0.00000000    0.00000000
     atom   21 type  4   force =     0.00000000    0.00000000    0.00000000
     atom   22 type  4   force =     0.00000000    0.00000000    0.00000000
     atom   23 type  5   force =     0.00000000    0.00000000    0.00000000
     The SCF correction term to forces
     atom    1 type  1   force =     0.00000000    0.00000000    0.00000000
     atom    2 type  1   force =     0.00000000    0.00000000    0.00000000
     atom    3 type  1   force =     0.00000000   -0.00000000    0.00000000
     atom    4 type  1   force =    -0.00000000    0.00000000    0.00000000
     atom    5 type  1   force =    -0.00000000    0.00000000    0.00000000
     atom    6 type  2   force =    -0.00000000    0.00000000    0.00000000
     atom    7 type  2   force =    -0.00000000   -0.00000000    0.00000000
     atom    8 type  3   force =     0.00000000   -0.00000000    0.00000000
     atom    9 type  3   force =    -0.00000000   -0.00000000    0.00000000
     atom   10 type  3   force =     0.00185536    0.00544846   -0.01181031
     atom   11 type  3   force =     0.00484024   -0.00492648    0.00342554
     atom   12 type  3   force =    -0.00002179   -0.00310540   -0.01209397
     atom   13 type  3   force =     0.00234147    0.00697100    0.00415628
     atom   14 type  3   force =    -0.00436295    0.00514435   -0.01416705
     atom   15 type  3   force =    -0.00327310   -0.00426724    0.00283995
     atom   16 type  3   force =    -0.00318856   -0.00286457   -0.01341444
     atom   17 type  3   force =    -0.00140505    0.00786989    0.00334539
     atom   18 type  4   force =    -0.00104355   -0.01337213    0.01223976
     atom   19 type  4   force =     0.00494131   -0.00114247   -0.00837608
     atom   20 type  4   force =     0.00214514   -0.00110957    0.00161828
     atom   21 type  4   force =    -0.00770298   -0.00089676   -0.00584349
     atom   22 type  4   force =    -0.00445638   -0.00280157    0.00125585
     atom   23 type  5   force =    -0.00272808   -0.00156951    0.00153737

     Total force =     0.407782     Total SCF correction =     0.039822


     Computing stress (Cartesian axis) and pressure


     negative rho (up, down):  9.099E-01 9.099E-01
          total   stress  (Ry/bohr**3)                   (kbar)     P=       89.23
   0.00065376   0.00001210   0.00000065           96.17        1.78        0.10
   0.00001210   0.00072844   0.00000079            1.78      107.16        0.12
   0.00000065   0.00000079   0.00043744            0.10        0.12       64.35


     Entering Dynamics:    iteration =     7
                           time      =   0.0014 pico-seconds


ATOMIC_POSITIONS (angstrom)
Hf            2.6699999570        2.8271230292        6.6039642186    0   0   0
Hf            1.2529906802        1.2862841814        5.0584662261    0   0   0
Hf            1.2554868986        7.3898042948        5.0880677674    0   0   0
Hf            4.0870092338        1.2862841814        5.0584662261    0   0   0
Hf            4.0845130154        7.3898042948        5.0880677674    0   0   0
Nb            2.6699999570        2.7969306055        3.5155832167    0   0   0
Nb            2.6699999570        5.8763786763        6.6349979432    0   0   0
Ta            1.2093730560        4.3409278516        5.0711258323    0   0   0
Ta            4.1306268580        4.3409278516        5.0711258323    0   0   0
Ta            1.3072161369        1.3140789833        2.0586963769
Ta            1.3027553204        1.3083416511        8.0946570932
Ta            1.3039817042        7.3758752344        2.0461585923
Ta            1.3076888133        7.3651244808        8.0860859738
Ta            4.0327748219        1.3140858568        2.0586979537
Ta            4.0372379851        1.3083440289        8.0946600955
Ta            4.0360162331        7.3758737603        2.0461619769
Ta            4.0323079594        7.3651248464        8.0860831366
Zr            2.6700285391        5.8663403227        3.5273763615
Zr            1.2434586152        4.3220615906        1.9996739339
Zr            1.2400064664        4.3541357194        8.1500751493
Zr            4.0965337350        4.3220584506        1.9996889118
Zr            4.0999888152        4.3541325663        8.1500663722
H             5.8393448137        5.7897082592        5.9815885067


     kinetic energy (Ekin) =          54.61128133 Ry
     temperature           =      410592.35042503 K 
     Ekin + Etot (const)   =       -2888.49449746 Ry
     Ions kinetic stress =         1054.85 (kbar)
                                   1579.48        1338.87         843.17
                                   1338.87        1134.93         714.74
                                    843.17         714.74         450.13



     Writing config-only to output data dir outdir/pwscf.save/
     NEW-OLD atomic charge density approx. for the potential

     Check: negative core charge=   -0.000002

     negative rho (up, down):  9.100E-01 9.100E-01
     Generating pointlists ...

     total cpu time spent up to now is     1154.6 secs

     Self-consistent Calculation

     iteration #  1     ecut=   120.00 Ry     beta= 0.70
     Davidson diagonalization with overlap
